LAMMPS (10 Feb 2015)
# created by CMLParser

units real
atom_style full
boundary p p p
bond_style harmonic
dielectric 9.8
pair_style lj/cut/coul/long 20.0
angle_style harmonic
dihedral_style opls
special_bonds lj 0 1 1
improper_style none
kspace_style ewald 10
read_data data.rewrite2
  orthogonal box = (-30.2304 -14.0911 -12.5168) to (19.5736 19.7477 13.397)
  2 by 2 by 1 MPI processor grid
  reading atoms ...
  140 atoms
  scanning bonds ...
  3 = max bonds/atom
  scanning angles ...
  8 = max angles/atom
  scanning dihedrals ...
  25 = max dihedrals/atom
  reading bonds ...
  147 bonds
  reading angles ...
  270 angles
  reading dihedrals ...
  623 dihedrals
  4 = max # of 1-2 neighbors
  9 = max # of 1-3 neighbors
  18 = max # of 1-4 neighbors
  21 = max # of special neighbors
thermo_style custom step temp press ke pe etotal density
dump 1 all custom 200 rewriteout.lammpstrj id type mol xs ys zs vx vy vz
neighbor 10.0 bin
neigh_modify every 1 delay 0 one 10000
fix 1 all npt temp 100 100 100 iso 0.0 1 1000 drag 2
fix 2 all momentum 1 linear 1 1 1
velocity all create 100.00000 1223
timestep 1
thermo 100
run 10000
Ewald initialization ...
WARNING: System is not charge neutral, net charge = -0.0002 (../kspace.cpp:293)
  G vector (1/distance) = 0.00669066
  estimated absolute RMS force accuracy = 0.00445454
  estimated relative force accuracy = 1.34147e-05
  KSpace vectors: actual max1d max3d = 5 1 13
                  kxmax kymax kzmax  = 1 1 1
Neighbor list info ...
  1 neighbor list requests
  update every 1 steps, delay 0 steps, check yes
  master list distance cutoff = 30
Memory usage per processor = 20.7473 Mbytes
Step Temp Press KinEng PotEng TotEng Density 
       0          100    23601.822     41.43326    31711.892    31753.325  0.038843146 
     100    1419.3086    -1912.293    588.06582    28741.559    29329.624  0.038016327 
     200    660.11749    296.22447    273.50819    28403.697    28677.205  0.040155654 
     300    520.76001    825.24803    215.76785    28225.265    28441.033  0.039107748 
     400      339.504   -388.73555    140.66757    28185.762    28326.429  0.039376861 
     500    262.04739    274.22531    108.57478    28151.458    28260.033  0.039654501 
     600    213.50005   -87.192447     88.46003    28130.631    28219.091  0.039419315 
     700    193.65564   -51.814533    80.237846     28111.82    28192.058  0.039294668 
     800    183.64609   -63.109695    76.090562    28096.571    28172.662  0.040229182 
     900    150.56847    298.95935    62.385426    28096.413    28158.798    0.0399681 
    1000    143.69455     222.6062    59.537335    28088.498    28148.035  0.040426975 
    1100    129.80306    220.88954     53.78164    28086.502    28140.283  0.040494496 
    1200    114.03147    45.422769    47.246954    28087.139    28134.386   0.04015786 
    1300    125.92006    97.768565    52.172785    28077.272    28129.445  0.040480202 
    1400    114.43732   -235.26969    47.415111    28078.354    28125.769  0.040494364 
    1500    119.39169   -75.939857    49.467869    28072.895    28122.362  0.040683949 
    1600     102.6805   -266.64775    42.543876    28077.548    28120.091  0.040584984 
    1700    104.19133   -175.10974    43.169863    28074.652    28117.821  0.040788231 
    1800    111.15824   -37.150406    46.056481    28069.952    28116.008  0.040674622 
    1900    105.93228    58.972492    43.891197    28070.581    28114.472  0.040998803 
    2000    105.02654    54.221065     43.51592    28069.999    28113.515  0.041160597 
    2100     110.5465   -31.695139     45.80302    28067.147     28112.95  0.041488231 
    2200    99.656184    244.21561    41.290805    28071.204    28112.495  0.041432592 
    2300    103.35649   -244.54877    42.823965    28069.154    28111.978  0.041610059 
    2400    96.022743     -30.5924    39.785353    28072.185     28111.97  0.041948632 
    2500    100.63413   -27.724677    41.695998    28070.422    28112.118   0.04211347 
    2600     102.0111   -390.78082    42.266524    28069.541    28111.808  0.042371062 
    2700    101.52541    174.73075    42.065286    28069.931    28111.996  0.042393275 
    2800    97.967802   -95.680063    40.591254    28071.632    28112.223  0.042359679 
    2900    93.590098    229.93383    38.777428    28073.372    28112.149  0.042578425 
    3000     95.39533    375.82513    39.525395    28072.969    28112.494  0.042769369 
    3100    100.75984    20.207139    41.748087    28070.317    28112.065  0.042854218 
    3200    112.99032   -155.31873    46.815572    28064.731    28111.546  0.042778597 
    3300    97.802106   -250.19294      40.5226    28070.729    28111.251  0.041976474 
    3400    109.09565   -20.839269    45.201886    28065.814    28111.016  0.041315379 
    3500    94.646051    31.605249    39.214944    28071.981    28111.196   0.04113159 
    3600    94.593705    57.655837    39.193255    28072.408    28111.601  0.041395916 
    3700    98.242104   -136.58092    40.704906    28071.305     28112.01  0.041369864 
    3800    95.978144   -336.45616    39.766874    28071.923     28111.69  0.041259823 
    3900    103.29937    -210.7978    42.800297    28068.883    28111.683  0.041311206 
    4000    106.67907    202.62392    44.200616    28067.256    28111.457  0.041795608 
    4100    103.61905   -64.807086    42.932749    28068.817    28111.749  0.041696992 
    4200    96.476959     254.6424    39.973549    28071.419    28111.392  0.041776677 
    4300    101.57988   -346.19636    42.087855    28069.693    28111.781  0.041695687 
    4400    99.199724   -83.668919    41.101679    28070.774    28111.875  0.041861116 
    4500    98.036006    36.588782    40.619513    28070.709    28111.328  0.041729888 
    4600    94.140758    347.65849    39.005585    28071.717    28110.722  0.041856726 
    4700    96.616434    61.835017    40.031338    28070.365    28110.396  0.042091065 
    4800    98.463233   -117.94363    40.796527    28069.159    28109.956   0.04225867 
    4900    88.060665    47.582592    36.486404    28073.828    28110.314  0.042871242 
    5000    96.459861   -370.60547    39.966465     28070.99    28110.956  0.042535366 
    5100    95.516018   -164.67059      39.5754    28071.623    28111.198  0.042197867 
    5200    101.86649   -112.61983    42.206609    28068.832    28111.039  0.042159414 
    5300    98.888927    214.94545    40.972906     28069.95    28110.922  0.042324989 
    5400    110.48351   -122.51539    45.776918    28065.749    28111.526  0.042551191 
    5500    100.41471    6.0594599    41.605087    28069.311    28110.916  0.043075905 
    5600    96.703962   -189.42427    40.067604    28071.132      28111.2  0.043484639 
    5700    102.87788     90.77716    42.625659    28068.847    28111.473  0.043253857 
    5800    94.712546   -138.70632    39.242495    28072.285    28111.528  0.043498338 
    5900    94.077551   -170.56155    38.979396    28072.537    28111.517  0.043533872 
    6000    102.11792    65.298475    42.310781    28068.719     28111.03  0.043913745 
    6100    106.22456   -466.67743    44.012297    28066.965    28110.978  0.044286559 
    6200    90.468927    144.25018    37.484226    28073.721    28111.205  0.044796421 
    6300    100.76032   -170.35936    41.748285    28069.158    28110.906  0.044466697 
    6400    100.00537   -103.68391    41.435484    28069.363    28110.798  0.044510733 
    6500    107.87337    354.74098    44.695455    28065.769    28110.464  0.044899885 
    6600    96.804611   -167.68965    40.109306    28070.025    28110.135  0.044650381 
    6700    103.17569   -190.59483     42.74905    28067.442    28110.191  0.044878256 
    6800    97.069689    150.29179    40.219136    28070.878    28111.097  0.045085323 
    6900    110.46115    273.96011    45.767654    28065.013     28110.78  0.045437712 
    7000    105.40534   -412.27828    43.672866    28067.355    28111.028  0.045863285 
    7100    88.908223    451.43432    36.837575    28074.269    28111.106  0.046162562 
    7200    103.25373   -87.680177    42.781388    28068.696    28111.477  0.046322765 
    7300     103.8566    6.4514602    43.031173    28068.432    28111.463  0.046330794 
    7400    98.717958   -22.512352    40.902068    28070.369    28111.271  0.046010027 
    7500    96.308995    100.21061    39.903956    28070.807    28110.711  0.045646911 
    7600    98.562456   -20.115355    40.837639    28069.691    28110.529  0.045589361 
    7700     102.3606    270.01999    42.411333    28067.966    28110.377   0.04541603 
    7800    92.590013   -227.83969     38.36306    28072.308    28110.671  0.045328545 
    7900    100.18748    523.88775     41.51094    28069.029     28110.54  0.045460947 
    8000    102.64198   -306.67219    42.527919    28068.439    28110.967  0.045330708 
    8100    93.475515    33.687832    38.729953    28072.602    28111.332  0.045351619 
    8200    92.037573   -141.43637    38.134167    28073.351    28111.485  0.045354401 
    8300    95.812964    219.69257    39.698434    28071.847    28111.546  0.045866999 
    8400     97.91275    7.9889925    40.568444    28070.845    28111.413  0.045834595 
    8500    97.591914   -7.6206329    40.435511    28071.269    28111.705   0.04618329 
    8600    94.798612    38.565774    39.278155    28072.483    28111.761  0.046211031 
    8700    100.17145    156.01455    41.504296    28070.453    28111.958  0.046269939 
    8800    95.487767    93.928825    39.563695    28072.473    28112.036   0.04626122 
    8900    92.404602   -2.5764281    38.286239    28073.513    28111.799  0.046237878 
    9000    102.49264    50.138641     42.46604    28069.562    28112.029   0.04672629 
    9100    97.292933    -43.36071    40.311634    28070.918     28111.23  0.047116337 
    9200     98.00911   -79.110536    40.608369    28070.731     28111.34  0.046974015 
    9300    96.489048     59.57366    39.978558     28071.01    28110.988  0.046790348 
    9400     105.8837   -132.53406    43.871067    28066.411    28110.282  0.046492858 
    9500    97.097646    410.53587     40.23072    28069.767    28109.998  0.046447453 
    9600     98.52561   -267.85188    40.822372    28069.103    28109.925  0.046706401 
    9700    93.928137     297.1602    38.917489    28071.504    28110.422  0.046853715 
    9800    81.806778   -221.50268    33.895215    28077.008    28110.903  0.047351764 
    9900    101.09998   -56.208414    41.889019    28069.599    28111.488  0.047612321 
   10000    100.59584   -270.04729    41.680134    28070.111    28111.792  0.047713248 
Loop time of 3.51944 on 4 procs for 10000 steps with 140 atoms

Pair  time (%) = 0.899791 (25.5663)
Bond  time (%) = 0.470178 (13.3594)
Kspce time (%) = 1.62145 (46.0714)
Neigh time (%) = 0.00478655 (0.136003)
Comm  time (%) = 0.326514 (9.27746)
Outpt time (%) = 0.0130299 (0.370228)
Other time (%) = 0.183685 (5.21915)

Nlocal:    35 ave 68 max 4 min
Histogram: 1 0 0 0 1 1 0 0 0 1
Nghost:    1751.5 ave 1878 max 1624 min
Histogram: 1 1 0 0 0 0 0 0 1 1
Neighs:    7590.25 ave 15182 max 522 min
Histogram: 1 0 0 0 2 0 0 0 0 1

Total # of neighbors = 30361
Ave neighs/atom = 216.864
Ave special neighs/atom = 11.0429
Neighbor list builds = 9
Dangerous builds = 0
unfix 1
unfix 2
write_restart restart.rewriteout
Ewald initialization ...
  G vector (1/distance) = 0.00669066
  estimated absolute RMS force accuracy = 0.00493703
  estimated relative force accuracy = 1.48677e-05
  KSpace vectors: actual max1d max3d = 5 1 13
                  kxmax kymax kzmax  = 1 1 1


replicate 3 3 3
  orthogonal box = (-28.5803 -12.97 -11.6583) to (110.931 81.8196 60.9319)
  2 by 2 by 1 MPI processor grid
  3780 atoms
  3969 bonds
  7290 angles
  16821 dihedrals
  4 = max # of 1-2 neighbors
  9 = max # of 1-3 neighbors
  18 = max # of 1-4 neighbors
  21 = max # of special neighbors
undump 1
fix 1 all npt temp 100 300 100 iso 10 1 1000 drag 2
fix 2 all momentum 1 linear 1 1 1
velocity all create 100.00000 1223
dump 2 all custom 1000 rewriteout_final.lammpstrj id type mol xs ys zs vx vy vz
run 500000
Ewald initialization ...
  G vector (1/distance) = 0.00669066
  estimated absolute RMS force accuracy = 0.00493703
  estimated relative force accuracy = 1.48677e-05
  KSpace vectors: actual max1d max3d = 5 1 13
                  kxmax kymax kzmax  = 1 1 1
Memory usage per processor = 21.6751 Mbytes
Step Temp Press KinEng PotEng TotEng Density 
   10000          100   -269.99565    1126.4481    757893.01    759019.46  0.047713248 
   10100    99.966911   -71.662171    1126.0754     757901.8    759027.88  0.047877407 
   10200     97.40129   -99.514835     1097.175    757927.07    759024.24  0.047684836 
   10300    102.21725    53.479064    1151.4243    757863.05    759014.47  0.048049504 
   10400    97.779619    -81.66992    1101.4367    757901.42    759002.85  0.048208208 
   10500    99.153448    44.831833    1116.9122    757884.37    759001.28  0.048299527 
   10600    98.242981    180.68839    1106.6562    757892.44     758999.1  0.048731456 
   10700    102.62867    30.069909    1156.0587    757840.54     758996.6  0.049062235 
   10800    99.093217   -243.79832    1116.2337    757879.63    758995.87  0.049234105 
   10900    99.902964   -4.6161879    1125.3551     757872.1    758997.45   0.04992295 
   11000     99.12168    129.22214    1116.5543    757884.41    759000.97  0.050444164 
   11100    100.71769    27.725499    1134.5326    757868.18    759002.71  0.050950962 
   11200    101.67632    22.777675     1145.331    757855.89    759001.23  0.051472487 
   11300    101.76322    77.020817    1146.3099    757847.71    758994.02  0.052058432 
   11400    98.964159    -103.3082    1114.7799    757875.56    758990.34   0.05246098 
   11500    101.14726     140.4121    1139.3714    757854.35    758993.72  0.052772591 
   11600    100.49949   -152.34525    1132.0746    757862.53     758994.6  0.053113172 
   11700    101.45725    123.26563    1142.8633    757854.59    758997.46  0.053364433 
   11800    100.98146   -2.7789713    1137.5037    757860.65    758998.15  0.053743002 
   11900    100.39444    28.850117    1130.8913    757865.03    758995.92  0.054042968 
   12000    102.49983   -79.690469    1154.6074    757843.57    758998.17  0.054599772 
   12100    100.89981    3.8771638     1136.584    757861.63    758998.21  0.055149363 
   12200    101.79451   -6.8954159    1146.6623    757850.95    758997.61  0.055612794 
   12300    101.25491    41.587529     1140.584    757856.41       758997   0.05607864 
   12400    101.17777    -41.70139    1139.7151    757857.68    758997.39  0.056470927 
   12500    102.58616    110.24593    1155.5799    757843.68    758999.26  0.056963267 
   12600    101.06831    -75.62586    1138.4821    757861.08    758999.57  0.057278013 
   12700    101.88256    8.0723469    1147.6542    757853.22    759000.87  0.057912679 
   12800    101.44338     15.23987    1142.7071    757857.16    758999.87  0.058391279 
   12900    101.32919   -83.788937    1141.4208    757860.65    759002.07  0.058810225 
   13000    101.46318    21.269232    1142.9301    757857.82    759000.75  0.059290905 
   13100    100.79627    20.327234    1135.4176    757869.25    759004.67  0.059712576 
   13200    102.59369    53.599244    1155.6647    757849.88    759005.54  0.060229877 
   13300    100.12429    154.72963    1127.8482    757882.05     759009.9  0.060785888 
   13400    99.676036   -22.635521    1122.7988     757887.3     759010.1    0.0612159 
   13500    102.10323    -18.61635    1150.1399    757861.44    759011.58   0.06167129 
   13600    101.25848   -15.724968    1140.6242    757874.67     759015.3  0.062178795 
   13700    101.47388    50.662689    1143.0506       757873    759016.05   0.06271421 
   13800    101.44762   -105.19253    1142.7548    757874.41    759017.17  0.063283673 
   13900    101.77071   -86.533446    1146.3942    757871.44    759017.83  0.063976191 
   14000    100.57153   -3.2239423    1132.8861    757884.52    759017.41  0.064750576 
   14100     103.1436    17.421679    1161.8591    757852.67    759014.53   0.06546181 
   14200     101.4899   -31.800833    1143.2311    757871.18    759014.41  0.066148855 
   14300    102.44296     8.250326    1153.9668    757859.85    759013.82  0.066781342 
   14400    102.36219   -43.700605    1153.0569    757859.68    759012.73  0.067347361 
   14500     101.7676   -2.9709834    1146.3592    757864.73    759011.09  0.067937226 
   14600    99.570061   -80.671905    1121.6051    757889.83    759011.44  0.068539734 
   14700    102.66433    86.011935    1156.4604    757856.14     759012.6  0.068967857 
   14800    102.43727    66.171619    1153.9027    757856.65    759010.55  0.069621009 
   14900    101.95884   -30.101646    1148.5134    757860.05    759008.56  0.070261877 
   15000    100.70203   -41.913609    1134.3561    757876.68    759011.04  0.070799534 
   15100    101.65455   -30.192489    1145.0858    757866.23    759011.31  0.071421978 
   15200    101.35305    34.403968    1141.6895    757872.57    759014.26   0.07187813 
   15300    99.631583   -12.137988    1122.2981    757894.07    759016.37  0.072495752 
   15400    101.96095   -129.16013    1148.5372     757869.5    759018.04  0.073029111 
   15500    104.41383    23.497642    1176.1676    757839.12    759015.29  0.073894429 
   15600     102.3469    16.744625    1152.8848     757864.8    759017.68  0.074439403 
   15700    100.66664    31.835473    1133.9575    757883.37    759017.33  0.075198016 
   15800     102.2049    27.626345    1151.2851    757869.03    759020.32  0.075870404 
   15900    102.34872   -7.3569157    1152.9053    757869.54    759022.44  0.076568494 
   16000    103.07386   0.36141602    1161.0736     757865.9    759026.97  0.077333481 
   16100    101.57784   -115.19317    1144.2217    757883.62    759027.84  0.077917166 
   16200    101.85542   -34.323392    1147.3485    757880.87    759028.22  0.078658496 
   16300    101.20538    58.978618    1140.0261    757887.17    759027.19  0.079201978 
   16400    102.75994   -1.5821595    1157.5375     757868.5    759026.04  0.079950248 
   16500     103.0408    19.800315    1160.7012    757863.89    759024.59  0.080689874 
   16600    99.772999   -50.638815    1123.8911    757901.61     759025.5  0.081249958 
   16700    102.95254   -86.481783    1159.7069    757863.46    759023.17  0.081873503 
   16800    103.24839   -43.451622    1163.0395    757860.57    759023.61  0.082462789 
   16900    102.28629   -56.772022     1152.202    757871.03    759023.24  0.083228288 
   17000    102.64015    77.225241    1156.1881    757863.67    759019.86  0.083722334 
   17100    102.71738    36.570695     1157.058     757861.6    759018.66  0.084370062 
   17200    102.28593    38.935524    1152.1979    757865.72    759017.92  0.085124067 
   17300    102.22944    24.038775    1151.5616    757868.81    759020.37  0.085753366 
   17400    103.69647   -72.978041     1168.087    757854.17    759022.25  0.086486092 
   17500     102.6531   -64.272749     1156.334    757866.49    759022.82  0.087190182 
   17600      103.443    60.844762    1165.2317    757856.99    759022.22  0.088001742 
   17700    103.12753   -104.44474    1161.6782    757858.87    759020.55  0.088661237 
   17800    103.32976    31.719664    1163.9562    757858.52    759022.47  0.089294875 
   17900    102.56743   -149.29513    1155.3689    757865.09    759020.46  0.089938643 
   18000    102.28465    54.566515    1152.1835    757869.22    759021.41    0.0905523 
   18100    102.66004    135.27935    1156.4121    757862.09     759018.5  0.090960627 
   18200    103.89006    11.127371    1170.2676    757849.94    759020.21  0.091469472 
   18300    103.15712   -22.618877    1162.0115    757858.36    759020.38   0.09190022 
   18400    102.51708   -53.591514    1154.8017    757862.78    759017.58  0.092342243 
   18500    104.17092   -101.09632    1173.4314    757841.78    759015.21  0.092704039 
   18600    104.63379   -40.635828    1178.6454    757837.52    759016.16  0.093237613 
   18700    102.33332   -36.569432    1152.7317    757863.56     759016.3  0.093892185 
   18800    103.70136    38.237042    1168.1421    757848.58    759016.73  0.094534578 
   18900    103.76103    73.970747    1168.8142    757846.29     759015.1  0.095030537 
   19000    102.60963     65.95004    1155.8443    757858.41    759014.26  0.095567279 
   19100    103.16135    29.452718     1162.059    757847.91    759009.97  0.096125213 
   19200    105.59245   -139.02343    1189.4441    757820.36     759009.8  0.096560888 
   19300    104.10839     56.31314     1172.727    757836.49    759009.22  0.097257805 
   19400    102.54994    1.7519363    1155.1719    757851.45    759006.62  0.097915767 
   19500    103.74376    34.167753    1168.6196    757835.66    759004.28  0.098410092 
   19600    102.95246    68.588325     1159.706    757843.39     759003.1  0.099041945 
   19700    103.82094   -48.983364     1169.489    757830.85    759000.34  0.099626593 
   19800    102.74422   -44.176222    1157.3603    757841.11    758998.47   0.10019711 
   19900    103.17614   -74.619506    1162.2257    757836.85    758999.07   0.10091927 
   20000    104.49235   -1.3086218    1177.0521    757818.14    758995.19   0.10144254 
   20100    105.30536   -158.12472    1186.2103    757807.56    758993.77   0.10203515 
   20200    102.83088   -55.107964    1158.3365    757835.97    758994.31   0.10250804 
   20300    105.13002    2.1202021    1184.2352    757807.42    758991.65   0.10323955 
   20400    104.29519   -55.534043    1174.8312    757815.73    758990.57   0.10400795 
   20500    104.37553    174.38268    1175.7362    757815.25    758990.99   0.10501005 
   20600     104.4379   -231.96759    1176.4388    757816.97    758993.41   0.10555163 
   20700     104.7222    256.65092    1179.6412    757812.65    758992.29    0.1063744 
   20800    103.06021   -112.74656    1160.9198    757828.16    758989.08   0.10688463 
   20900    104.93233   -36.506141    1182.0082    757804.93    758986.93   0.10742623 
   21000    105.24761   -73.287972    1185.5597    757799.67    758985.23   0.10835272 
   21100     104.6093   -25.142004    1178.3695    757805.09    758983.46   0.10896789 
   21200    104.99678    72.111681    1182.7343    757799.73    758982.46   0.10983636 
   21300    104.81771     67.94403    1180.7171    757798.64    758979.35   0.11057146 
   21400    104.78679   -43.751471    1180.3689    757796.35    758976.72   0.11146351 
   21500    106.34485   -153.32873    1197.9195    757772.48     758970.4   0.11201602 
   21600    106.85098    125.30274    1203.6208    757765.48     758969.1   0.11299753 
   21700    105.17257   -186.30501    1184.7145     757779.3    758964.02   0.11365292 
   21800    106.76929    179.27115    1202.7007    757753.07    758955.77   0.11457232 
   21900     105.4993    94.779159    1188.3948    757760.88    758949.28   0.11545468 
   22000    105.03144   -15.079278    1183.1247    757764.13    758947.26    0.1162179 
   22100    103.95068   -43.575199    1170.9504    757769.67    758940.62   0.11713456 
   22200    105.13318   -12.396268    1184.2707    757754.76    758939.03   0.11812722 
   22300    105.23517   -54.339764    1185.4196    757748.32    758933.74   0.11920581 
   22400    105.39374   -54.662111    1187.2058    757746.07    758933.27   0.12002491 
   22500    105.79567    55.904897    1191.7334    757740.61    758932.34   0.12098224 
   22600    106.00283 