LAMMPS (10 Feb 2015)
# Input file for running an NVT Equilibration in LAMMPS, Filename = in.P3HTLeeE250_150

units real
atom_style full
boundary p p p
bond_style harmonic
dielectric 9.8
pair_style lj/cut/coul/long 20.0
angle_style harmonic
dihedral_style opls
special_bonds lj 0 1 1
improper_style none
kspace_style ewald 10
read_data data.rewrite
  orthogonal box = (-30.2304 -14.0911 -12.5168) to (19.5736 19.7477 13.397)
  2 by 2 by 2 MPI processor grid
  reading atoms ...
  140 atoms
  scanning bonds ...
  3 = max bonds/atom
  scanning angles ...
  8 = max angles/atom
  scanning dihedrals ...
  25 = max dihedrals/atom
  reading bonds ...
  147 bonds
  reading angles ...
  270 angles
  reading dihedrals ...
  623 dihedrals
  4 = max # of 1-2 neighbors
  9 = max # of 1-3 neighbors
  18 = max # of 1-4 neighbors
  21 = max # of special neighbors
thermo_style custom step temp press ke pe etotal density
dump 1 all custom 200 rewrite_partial.lammpstrj id type mol xs ys zs vx vy vz
neighbor 10.0 bin
neigh_modify every 1 delay 0 one 2000
fix 1 all npt temp 100 100 100 iso 0.0 1 1000 drag 2
fix 2 all momentum 1 linear 1 1 1
velocity all create 100.00000 1223
timestep 1
thermo 100
run 10000
Ewald initialization ...
  G vector (1/distance) = 0.00669066
  estimated absolute RMS force accuracy = 0.0171491
  estimated relative force accuracy = 5.16441e-05
  KSpace vectors: actual max1d max3d = 5 1 13
                  kxmax kymax kzmax  = 1 1 1
Neighbor list info ...
  1 neighbor list requests
  update every 1 steps, delay 0 steps, check yes
  master list distance cutoff = 30
Memory usage per processor = 21.3828 Mbytes
Step Temp Press KinEng PotEng TotEng Density 
       0          100    23595.225     41.43326    31699.249    31740.682  0.038843146 
     100    1419.8386   -1910.4345    588.28543    28732.171    29320.457  0.038020612 
     200     654.1998    498.07334     271.0563     28394.66    28665.717  0.040258474 
     300    432.12961    575.48279    179.04538     28253.59    28432.635   0.03938967 
     400    318.91227   -769.93037    132.13575    28193.305    28325.441  0.039764713 
     500    272.89877    164.63547    113.07086    28151.312    28264.383  0.040425224 
     600    209.59818   -396.66488     86.84336    28138.056      28224.9  0.040180727 
     700    176.35512   -159.29812    73.069673    28125.402    28198.472  0.040252448 
     800    163.89948   -143.20592    67.908896    28112.006    28179.915  0.040805593 
     900    140.11634    260.76823    58.054766    28108.149    28166.204  0.040568446 
    1000    127.87538   -47.034534     52.98294     28103.18    28156.163  0.040856871 
    1100    118.23389    268.33192    48.988155    28098.656    28147.645  0.040769964 
    1200    128.95546    276.79708    53.430452    28088.005    28141.436  0.041212132 
    1300    114.67657   -229.25475    47.514241     28089.35    28136.864  0.041216463 
    1400    116.83039    234.25542    48.406639    28085.376    28133.783  0.041024502 
    1500    103.78922   -49.385851    43.003255    28088.554    28131.557  0.040938219 
    1600    105.93438   -93.718079    43.892068    28085.674    28129.566  0.041015187 
    1700    105.22554    249.57975    43.598372    28083.976    28127.575  0.041021361 
    1800    100.10177    32.701914    41.475427     28084.98    28126.455  0.041215545 
    1900    104.05935   -52.193923    43.115181    28081.757    28124.872  0.041116226 
    2000    98.037825   -203.93219    40.620267    28082.788    28123.408  0.041198426 
    2100    93.190261    223.16981    38.611763    28084.658     28123.27  0.041562098 
    2200     107.2295    38.571416    44.428677    28078.271    28122.699  0.041393204 
    2300    100.42432    99.337849    41.609068    28080.687    28122.296  0.041210146 
    2400    97.049411   -101.19912    40.210735    28081.589      28121.8  0.041352909 
    2500    107.22264    109.64348    44.425835    28077.005    28121.431  0.041477789 
    2600    93.950945   -220.13785    38.926939    28082.749    28121.676  0.041550515 
    2700    109.40798    559.25128    45.331291    28075.979     28121.31  0.041656094 
    2800    100.55849   -176.50197     41.66466    28079.882    28121.547  0.041591399 
    2900    91.167555   -354.52782     37.77369    28084.919    28122.692  0.041721567 
    3000    104.07895    133.05269    43.123302    28079.416    28122.539  0.041897429 
    3100    98.010662    95.716948    40.609012    28082.015    28122.624  0.041695413 
    3200    102.28571   -22.359623    42.380304    28080.473    28122.853  0.041666985 
    3300    94.546761   -200.03078    39.173805    28084.258    28123.432  0.041151956 
    3400    94.881899    33.845063    39.312664    28084.405    28123.717  0.041499829 
    3500    103.01622   -231.10848    42.682979    28080.448    28123.131  0.041464426 
    3600    100.84936   -180.12086    41.785176    28080.788    28122.573  0.041408972 
    3700    101.66962   -96.142831    42.125039    28080.656    28122.781  0.041605857 
    3800    99.804347    264.96048    41.352194    28081.435    28122.787  0.041477536 
    3900    93.981988   -186.57393    38.939801    28083.823    28122.763  0.041575267 
    4000    107.31288     202.0467    44.463224    28077.716    28122.179  0.041207284 
    4100    105.39471    -162.4772    43.668463    28078.336    28122.004  0.041421155 
    4200    100.79144   -37.722031    41.761181    28079.457    28121.218  0.041670649 
    4300    97.167766   -132.06704    40.259773    28080.521    28120.781  0.041289061 
    4400    99.860924   -19.201393    41.375636    28079.327    28120.703  0.041471218 
    4500     104.9464   -76.486735    43.482715    28076.854    28120.337  0.040950887 
    4600    96.337964    49.567495    39.915959    28080.486    28120.402  0.041208349 
    4700    84.788402   -236.74871    35.130599    28085.652    28120.783  0.041024015 
    4800    97.879782    304.76291    40.554784    28080.387    28120.942  0.040637846 
    4900    100.30363   -108.79717    41.559062    28079.164    28120.723  0.040795349 
    5000    107.78805   -152.30432    44.660102    28075.447    28120.108   0.04034451 
    5100    91.734107   -235.71423    38.008431    28082.659    28120.667   0.04056754 
    5200     98.64854    249.13892    40.873306    28080.351    28121.225  0.040505314 
    5300    98.415701    -83.21756    40.776833    28080.393     28121.17  0.040679056 
    5400    91.387995   -66.458742    37.865025    28084.478    28122.343    0.0409991 
    5500    98.261203    272.11244    40.712819    28081.625    28122.338  0.040987379 
    5600     100.8694    92.988054     41.79348    28080.331    28122.124  0.040835501 
    5700    95.668173    -479.1219    39.638443    28082.466    28122.105  0.040925575 
    5800    91.594915   -84.027642    37.950759    28083.923    28121.874  0.041338019 
    5900     101.6505    63.757639    42.117116    28079.059    28121.176   0.04112659 
    6000    103.36684    201.18655    42.828252     28078.49    28121.318  0.041509634 
    6100    97.836158   -404.18131    40.536709     28080.52    28121.057  0.041532098 
    6200    104.45532    192.25675    43.279246    28077.462    28120.741  0.041907022 
    6300     101.2891   -114.42914    41.967377    28078.101    28120.068  0.041127254 
    6400     112.3157    247.41718    46.536055    28073.344     28119.88  0.041300051 
    6500    103.85307   -69.343966    43.029711    28077.014    28120.043  0.041394142 
    6600    107.43363    79.053894    44.513254    28075.656     28120.17  0.040985383 
    6700    101.06127   -52.217889    41.872977    28078.345    28120.218   0.04114414 
    6800    105.68746    484.57645    43.789761    28076.187    28119.977  0.041006259 
    6900    102.34702    100.11305    42.405708    28078.041    28120.447  0.041543083 
    7000    102.77789   -53.920854    42.584229    28078.165     28120.75  0.041582736 
    7100    102.17639    244.43161    42.335007    28078.589    28120.924  0.041301034 
    7200    95.870057    -52.19502     39.72209    28081.377    28121.099  0.041598275 
    7300    90.593943    160.20114    37.536024    28084.151    28121.687  0.041274603 
    7400    101.87694   -3.8876008    42.210938    28079.166    28121.377  0.041235727 
    7500    110.11276   -107.59912    45.623308    28075.855    28121.478  0.041181329 
    7600    108.02857   -235.11641    44.759757    28076.751    28121.511  0.041099973 
    7700    105.43219    385.81325    43.683992    28078.061    28121.745  0.041278029 
    7800    98.438993    1.6116262    40.786483    28080.973     28121.76  0.041019182 
    7900    97.210992    58.471875    40.277683    28081.227    28121.505   0.04119368 
    8000    93.163463    65.732804     38.60066    28082.644    28121.245  0.041413798 
    8100     101.7166   -27.258732    42.144504    28079.099    28121.244  0.041681568 
    8200    104.28151     395.7004    43.207228    28077.784    28120.991  0.041694489 
    8300    96.123868    -257.9618    39.827252    28080.916    28120.744  0.041363288 
    8400     105.5425     -170.797    43.729699    28076.031    28119.761  0.041231512 
    8500    97.779562   -140.74745     40.51326    28079.561    28120.074  0.041518561 
    8600    101.94599   -73.475084    42.239547    28077.694    28119.933  0.041792122 
    8700     107.7267   -390.48347    44.634684    28074.599    28119.234  0.041362117 
    8800    105.15684    66.574413    43.569908    28075.328    28118.898  0.041384433 
    8900    100.46072    287.42804     41.62415    28077.369    28118.993  0.041338131 
    9000    109.28509    8.0239233    45.280374    28073.467    28118.748  0.041343425 
    9100    103.97345     320.0662    43.079589    28075.153    28118.232  0.042028163 
    9200    104.31454    84.124467    43.220914    28075.017    28118.237  0.042166656 
    9300    106.47347   -170.86639    44.115429    28073.993    28118.109  0.042389299 
    9400    87.474748    71.636586    36.243639    28081.508    28117.752  0.042455531 
    9500    95.611758   -7.1886369    39.615068    28078.825     28118.44  0.042901467 
    9600    96.451137   -205.17672     39.96285    28077.938    28117.901  0.043117103 
    9700     102.8984    198.88814    42.634162    28075.293    28117.928  0.042889627 
    9800    94.228539   -433.38624    39.041955    28079.642    28118.684  0.043224101 
    9900    101.84743   -30.224773     42.19871    28075.903    28118.102  0.043102154 
   10000    99.285912    368.49059     41.13739    28076.485    28117.622   0.04315593 
Loop time of 11.0321 on 8 procs for 10000 steps with 140 atoms

Pair  time (%) = 0.775842 (7.03257)
Bond  time (%) = 0.29621 (2.68498)
Kspce time (%) = 2.01915 (18.3024)
Neigh time (%) = 0.00496015 (0.0449609)
Comm  time (%) = 5.81772 (52.7343)
Outpt time (%) = 0.0396168 (0.359104)
Other time (%) = 2.07864 (18.8417)

Nlocal:    17.5 ave 39 max 0 min
Histogram: 2 1 0 1 0 0 1 2 0 1
Nghost:    1627.25 ave 1746 max 1476 min
Histogram: 2 0 0 0 2 0 0 0 2 2
Neighs:    3427.38 ave 7299 max 0 min
Histogram: 2 1 0 1 0 0 0 2 1 1

Total # of neighbors = 27419
Ave neighs/atom = 195.85
Ave special neighs/atom = 11.0429
Neighbor list builds = 9
Dangerous builds = 0
unfix 1
unfix 2
write_restart restart.rewrite_partial
Ewald initialization ...
  G vector (1/distance) = 0.00669066
  estimated absolute RMS force accuracy = 0.0180761
  estimated relative force accuracy = 5.44357e-05
  KSpace vectors: actual max1d max3d = 5 1 13
                  kxmax kymax kzmax  = 1 1 1


replicate 3 3 3
  orthogonal box = (-29.3716 -13.5076 -12.07) to (114.887 84.5076 62.9904)
  2 by 2 by 2 MPI processor grid
  3780 atoms
  3969 bonds
  7290 angles
  16821 dihedrals
  4 = max # of 1-2 neighbors
  9 = max # of 1-3 neighbors
  18 = max # of 1-4 neighbors
  21 = max # of special neighbors
undump 1
fix 1 all npt temp 100 300 100 iso 10 1 1000 drag 2
fix 2 all momentum 1 linear 1 1 1
velocity all create 100.00000 1223
dump 2 all custom 200 rewrite_partial_final.lammpstrj id type mol xs ys zs vx vy vz
run 500000
Ewald initialization ...
  G vector (1/distance) = 0.00669066
  estimated absolute RMS force accuracy = 0.0180761
  estimated relative force accuracy = 5.44357e-05
  KSpace vectors: actual max1d max3d = 5 1 13
                  kxmax kymax kzmax  = 1 1 1
Memory usage per processor = 21.8651 Mbytes
Step Temp Press KinEng PotEng TotEng Density 
   10000          100    369.16847    1126.4481    758065.09    759191.53   0.04315593 
   10100    100.53334    -172.3609    1132.4559     758068.4    759200.85  0.043053463 
   10200    99.904929   -306.80264    1125.3772    758072.82    759198.19  0.043064351 
   10300    103.18203    52.794144     1162.292    758037.86    759200.16  0.043226342 
   10400    103.24957   -74.345575    1163.0529    758044.02    759207.07  0.043277401 
   10500    100.63052   -314.48953    1133.5506    758078.67    759212.22  0.043634797 
   10600    99.072459    197.17973    1115.9999    758086.93    759202.93  0.043594561 
   10700    103.36061    19.937921    1164.3036    758040.02    759204.32   0.04397939 
   10800     99.73497    103.61343    1123.4627    758078.39    759201.85  0.044155629 
   10900    99.879817    30.060262    1125.0943    758075.25    759200.35  0.044500826 
   11000    99.328145   -13.794264      1118.88    758078.48    759197.36  0.044986469 
   11100    99.816888    44.533083    1124.3855    758073.68    759198.07  0.045200434 
   11200    100.01111    67.413691    1126.5733     758074.6    759201.17  0.045855787 
   11300    99.916668   -159.45006    1125.5094    758078.72    759204.23  0.046147178 
   11400     99.78652   -57.587672    1124.0434    758079.64    759203.68  0.046664169 
   11500    100.89045   -22.036505    1136.4786     758070.4    759206.88  0.046962471 
   11600    97.957886   -91.965708    1103.4448    758111.76     759215.2  0.047293418 
   11700    99.778846    20.223642    1123.9569    758094.33    759218.29  0.047662214 
   11800    100.57976    69.903609    1132.9788    758086.83    759219.81  0.047986208 
   11900    99.691679   -35.876935     1122.975    758097.85    759220.83  0.048564431 
   12000    98.978695    52.475928    1114.9436    758107.33    759222.27  0.048884746 
   12100     101.0427    14.876294    1138.1936    758081.26    759219.45  0.049376222 
   12200    101.10852    17.104891     1138.935    758081.73    759220.66  0.049856267 
   12300    101.98899   -68.390207    1148.8531    758072.85     759221.7  0.050281074 
   12400    101.17104     59.58249    1139.6392    758079.21    759218.85  0.050868053 
   12500    99.716254   -20.317271    1123.2519    758092.51    759215.76  0.051239148 
   12600    100.41475   -107.43379    1131.1201    758085.08     759216.2  0.051811281 
   12700    102.21113   -106.19196    1151.3553    758060.27    759211.63  0.052253318 
   12800    101.60783   -30.123123    1144.5595     758065.6    759210.15  0.052700841 
   12900    102.22189   -50.008764    1151.4766    758059.32     759210.8  0.053249116 
   13000    101.21919   -10.895492    1140.1817    758068.15    759208.33  0.053723635 
   13100    100.96965    82.742337    1137.3707    758071.92    759209.29  0.054280036 
   13200    100.44809     3.423359    1131.4956    758077.52    759209.01   0.05459291 
   13300    100.61761   -17.188726    1133.4051    758075.58    759208.99  0.055073005 
   13400    102.25409   -56.964952    1151.8393    758056.98    759208.82  0.055586123 
   13500    100.40381   -23.002821    1130.9969    758079.06    759210.05   0.05603003 
   13600    101.19022    16.258701    1139.8553    758069.88    759209.74  0.056639225 
   13700    101.69942    1.9621631    1145.5912     758066.2    759211.79  0.057021501 
   13800    99.755256   -56.806813    1123.6912    758091.56    759215.25  0.057616456 
   13900    102.71412   -57.799185    1157.0213     758060.3    759217.32   0.05808265 
   14000    101.86358    122.80862    1147.4404    758069.09    759216.53  0.058717872 
   14100    100.70563   -78.507113    1134.3967    758081.84    759216.24  0.059303852 
   14200    102.65246    60.196565    1156.3267    758061.08    759217.41  0.059917614 
   14300    102.24643    11.082855     1151.753    758064.21    759215.96  0.060393351 
   14400    102.44881   -32.322449    1154.0327       758059    759213.03  0.060976312 
   14500    100.75643    -99.16322    1134.9689    758079.04       759214  0.061425694 
   14600    101.07005    10.989934    1138.5017    758083.93    759222.43  0.062004299 
   14700    101.49095    50.855735    1143.2429    758076.61    759219.86  0.062607543 
   14800     102.1426   -7.7145804    1150.5834     758069.6    759220.18  0.063153627 
   14900    102.28271    124.92334    1152.1617    758078.06    759230.22  0.063706134 
   15000    100.90101   -5.3349916    1136.5975    758090.03    759226.62  0.064165066 
   15100    102.31521   0.78358689    1152.5278    758075.06    759227.59  0.064747186 
   15200    103.16079    23.279014    1162.0527    758066.38    759228.43  0.065298677 
   15300    102.15388   -30.102116    1150.7104    758079.56    759230.27  0.065721223 
   15400    101.84838   -2.9477281    1147.2692    758086.11    759233.38   0.06617369 
   15500    101.23889   -75.498464    1140.4035     758089.7     759230.1  0.066682475 
   15600    102.40717    87.378739    1153.5636    758077.36    759230.92  0.067205305 
   15700    102.40236    125.32336    1153.5095     758079.8    759233.31  0.067604379 
   15800    102.47954   -49.605756    1154.3789    758082.62       759237  0.068012771 
   15900    101.67274   -26.506399    1145.2907    758087.15    759232.44  0.068492686 
   16000      103.935    28.883459    1170.7739    758061.17    759231.94  0.068935995 
   16100    102.95901    58.529673    1159.7798    758073.45    759233.23   0.06944296 
   16200    101.14045   -14.725318    1139.2947    758095.83    759235.13  0.069763008 
   16300    106.18939    8.5332167    1196.1684    758037.96    759234.12   0.07023218 
   16400    102.85863    62.240668    1158.6491    758067.88    759226.53  0.070636177 
   16500     105.4118   -159.36898    1187.4093    758033.63    759221.04  0.071147335 
   16600    102.75586   -79.401477    1157.4914    758065.48    759222.97  0.071824634 
   16700    101.15268    41.456692    1139.4324    758082.08    759221.51  0.072472248 
   16800    102.75773   -44.076568    1157.5126    758065.34    759222.85  0.073047289 
   16900     102.0152   -46.250092    1149.1484    758073.23    759222.38  0.073746739 
   17000    100.04204    113.03595    1126.9217    758098.31    759225.23  0.074306961 
   17100    103.65631   -130.64557    1167.6345     758058.3    759225.94  0.074886487 
   17200    100.83229   -33.763755    1135.8234    758093.65    759229.48  0.075456169 
   17300    102.79342   -31.425014    1157.9146    758074.79    759232.71  0.076207908 
   17400    102.71939    53.008998    1157.0806    758076.42     759233.5  0.076868905 
   17500    101.10831    -20.16832    1138.9326    758095.69    759234.62  0.077364472 
   17600    103.45202    3.5661971    1165.3334    758070.78    759236.12  0.077913826 
   17700    102.89675   -12.057067    1159.0785    758081.97    759241.05  0.078517368 
   17800    104.51919    18.019018    1177.3545    758063.27    759240.63  0.079147561 
   17900     102.2735    63.145656    1152.0579    758087.24    759239.29  0.079857221 
   18000    103.56874   -52.856288    1166.6482    758069.71    759236.36  0.080491802 
   18100    103.50792    17.611411     1165.963    758069.08    759235.05  0.081207545 
   18200    102.90044    95.280394    1159.1201    758076.42    759235.54  0.081875954 
   18300     103.0314   -96.143218    1160.5953    758076.09    759236.68  0.082492383 
   18400    103.99385   -10.816268    1171.4367    758065.44    759236.88  0.083235312 
   18500    103.04221    42.211647    1160.7171    758074.36    759235.08  0.084033252 
   18600    104.70308    68.525319    1179.4259    758052.22    759231.64  0.084857228 
   18700    104.03851    -8.775026    1171.9399    758061.25    759233.19  0.085748257 
   18800    102.99733    176.92715    1160.2115    758067.02    759227.23  0.086538197 
   18900    104.17434   -26.016463    1173.4698    758054.32    759227.79  0.087170021 
   19000    102.73797   -92.761477    1157.2899    758068.54    759225.83  0.087751966 
   19100    102.95756   -66.305367    1159.7634     758067.6    759227.36  0.088215398 
   19200    103.68769    101.04426     1167.988    758059.85    759227.84   0.08879217 
   19300    103.70172   -78.753168    1168.1461    758053.29    759221.44  0.089280959 
   19400    105.27254    9.0777477    1185.8406    758037.42    759223.26  0.089835627 
   19500    105.21654    54.102126    1185.2097     758034.6    759219.81  0.090361819 
   19600    103.08132     -72.3764    1161.1576    758052.92    759214.07  0.090859634 
   19700    105.03695    72.921141    1183.1867    758030.93    759214.12  0.091508949 
   19800    104.90719   -15.874836     1181.725    758029.26    759210.98  0.092015054 
   19900    104.01773    41.337622    1171.7058    758031.28    759202.98  0.092707891 
   20000    103.04545    51.966736    1160.7535    758035.23    759195.98  0.093267649 
   20100    103.57387   -39.531183    1166.7059    758035.82    759202.53   0.09387806 
   20200    103.87002   -81.460938    1170.0419    758038.03    759208.07  0.094487697 
   20300    104.83654    93.155978    1180.9292    758029.11    759210.04  0.095375861 
   20400    102.95058   -42.115909    1159.6849    758044.75    759204.43  0.096057063 
   20500    104.20052    110.78537    1173.7648    758028.71    759202.48  0.096679265 
   20600    103.46433   -62.353321     1165.472    758033.71    759199.19  0.097479611 
   20700    102.98382   -58.162142    1160.0593    758031.86    759191.92  0.098348131 
   20800    105.05022   -79.402998    1183.3362    758004.69    759188.03   0.09910338 
   20900    103.99464    2.6480199    1171.4457    758010.21    759181.66  0.099747465 
   21000    106.32588   -87.183998    1197.7059    757979.57    759177.27   0.10050664 
   21100    103.73148    53.083671    1168.4813    758006.33    759174.81     0.101481 
   21200    105.07518   -5.4855195    1183.6174    757991.33    759174.95   0.10207999 
   21300    105.18546    51.657166    1184.8597    757985.77    759170.63   0.10265474 
   21400    105.06119   -71.064948    1183.4598    757991.74     759175.2   0.10312004 
   21500    105.56558    227.66205    1189.1415    757981.99    759171.13   0.10390014 
   21600    104.81171    18.951081    1180.6495    757985.15     759165.8   0.10428627 
   21700    103.83019   -198.49089    1169.5932    757996.32    759165.91   0.10469594 
   21800    105.97874    155.41746    1193.7956    757974.18    759167.98   0.10543949 
   21900    103.25541   -90.593261    1163.1186    758000.65    759163.77   0.10580153 
   22000    104.42323    44.104784    1176.2735    757983.99    759160.26   0.10652049 
   22100    104.40207    85.579241    1176.0352    757983.93    759159.96   0.10746422 
   22200    104.55362   -95.958158    1177.7423    757975.12    759152.86   0.10834189 
   22300     105.3317   -27.128476    1186.5069    757964.09    759150.59   0.10930629 
   22400    105.42813     23.33547    1187.5932    757955.61     759143.2   0.11033717 
   22500    107.31854   -142.82971    1208.8877    757931.37    759140.26   0.11135572 
   22600    105.34549   -23.026558    1186.6623    757951.47    759138.14    0.1122094 
   22700    105.26815   -124.29106    1185.7911    757948.35    759134.15   0.11307605 
   22800    104.89001    106.75545    1181.5315    757952.01    759133.55   0.11402377 
   22900    106.45496   -71.087496    1199.1598    757938.14     759137.3   0.11479675 
   23000    105.89779    22.433096    1192.8836    757944.19    759137.07   0.11556244 
   23100      103.691   -36.584578    1168.0253    757969.85    759137.88    0.1161778 
   23200    106.40235     109.5447    1198.5673    757933.59    759132.16   0.11707498 
   23300    105.14813   -163.99729    1184.4391     757937.6    759122.04   0.11768967 
   23400    107.86353     139.2319    1215.0267    757906.21    759121.24   0.11851493 
   23500    103.87016    91.332855    1170.0435    757950.26     759120.3   0.11924864 
   23600    105.07876    94.183679    1183.6577    757934.65    759118.31   0.11997974 
   23700    105.18418   -70.570229    1184.8453    757934.85    759119.69   0.12103618 
   23800    106.27241   -71.882209    1197.1036    757919.92    759117.02   0.12180163 
   23900    105.59772    106.62135    1189.5035    757924.51    759114.01   0.12315179 
   24000    105.59613   -155.81008    1189.4856    757919.86    759109.35   0.12436291 
   24100    106.29025    130.30063    1197.3045    757904.09     759101.4   0.12534998 
   24200    105.37466    30.669215    1186.9909    757916.55    759103.54   0.12623197 
   24300    105.46676   -7.7603119    1188.0283    757915.49    759103.52   0.12703475 
   24400     108.8645    37.709651    1226.3021    757876.05    759102.35   0.12785119 
   24500    105.50321    96.140306    1188.4389    757902.26     759090.7    0.1288662 
   24600     106.4663   -170.19437    1199.2876     757886.6    759085.88   0.12999293 
   24700    105.76567   -34.113089    1191.3955    757889.41     759080.8   0.13101053 
   24800    107.23344   -125.70586     1207.929    757862.09    759070.02   0.13221631 
   24900    107.00332    15.449496    1205.3369    757864.89    759070.22   0.13318211 
   25000    107.28053    2.5850585    1208.4595    757858.67    759067.13   0.13422002 
   25100    107.32288   -48.343247    1208.9365     757850.6    759059.54   0.13522025 
   25200    107.74618    -114.4422    1213.7048    757830.01    759043.71   0.13622221 
   25300    106.40327    110.42501    1198.5776    757836.42       759035   0.13716775 
   25400    107.66908   -75.016181    1212.8363    757820.36     759033.2   0.13754961 
   25500    107.15242    144.62782    1207.0164    757817.64    759024.65    0.1386216 
   25600    107.28018    46.878404    1208.4555     757810.4    759018.85   0.13915137 
   25700    104.88722   -70.521488    1181.5001    757834.52    759016.02   0.14014047 
   25800    107.52115    129.04282      1211.17    757802.78    759013.95    0.1409546 
   25900    107.87254    136.23858    1215.1282     757797.9    759013.02   0.14171524 
   26000    106.33111   -15.670268    1197.7647    757819.77    759017.53   0.14273039 
   26100    107.30645   -21.397668    1208.7515    757810.76    759019.52   0.14342227 
   26200    106.57372   -33.449104    1200.4977     757814.6     759015.1   0.14406155 
   26300    106.24672    -25.83307    1196.8142     757811.8    759008.61   0.14476496 
   26400    107.71511    -6.127044    1213.3548     757795.7    759009.06   0.14564402 
   26500    107.69192   -154.85444    1213.0936    757788.68    759001.78   0.14644604 
   26600     107.5496   -201.03307    1211.4905    757778.05    758989.54   0.14784026 
   26700    107.24913    131.28378    1208.1058    757779.84    758987.94   0.14898061 
   26800    107.19685   -113.20956    1207.5169     757776.8    758984.31   0.14965055 
   26900    107.45752    170.08891    1210.4532    757772.88    758983.33   0.15047177 
   27000    108.52316   -18.194967    1222.4571    757756.36    758978.82     0.151177 
   27100    108.57297   -42.308259    1223.0182    757743.88    758966.89   0.15237686 
   27200    108.82655    93.008461    1225.8746    757737.39    758963.26   0.15353505 
   27300    107.98107   -1.2155205    1216.3507    757740.58    758956.93    0.1544458 
   27400    107.81554    17.866941    1214.4861    757735.91    758950.39   0.15548307 
   27500    106.43738    -83.67397    1198.9619    757748.07    758947.04   0.15661541 
   27600    106.96398    61.306022    1204.8937    757740.66    758945.55   0.15818947 
   27700    108.94019   -51.518866    1227.1547    757720.72    758947.88   0.15942926 
   27800    106.55954    107.97396     1200.338    757744.48    758944.82    0.1606126 
   27900    106.32691     39.88983    1197.7175    757739.27    758936.99   0.16133445 
   28000    107.71527   -30.877243    1213.3567    757730.06    758943.42   0.16280495 
   28100     108.0508   -149.46804    1217.1362    757718.05    758935.18   0.16344197 
   28200    108.82001    29.351517     1225.801    757702.66    758928.46   0.16443812 
   28300    106.57754   -55.851535    1200.5407    757727.24    758927.78   0.16538926 
   28400    106.95351   -284.52191    1204.7758     757715.7    758920.48   0.16612355 
   28500    107.08626    57.882192    1206.2712    757699.85    758906.12    0.1675431 
   28600    107.43014    86.772757    1210.1448    757699.36     758909.5    0.1685771 
   28700    107.75174     4.612307    1213.7674    757690.38    758904.15   0.17045928 
   28800    107.23052   -100.94752    1207.8962    757692.41    758900.31   0.17165199 
   28900    107.72412   -66.839907    1213.4563     757683.9    758897.36   0.17320609 
   29000    108.83769   -114.52409    1226.0002    757667.62    758893.62   0.17429529 
   29100    109.59849   -157.28186    1234.5701    757660.65    758895.22   0.17567917 
   29200    109.23535    100.96968    1230.4796     757648.4    758878.88   0.17740786 
   29300    108.56744    -225.7986    1222.9558    757650.23    758873.19   0.17846091 
   29400    108.20699   -223.80817    1218.8956    757646.49    758865.39   0.17921414 
   29500    108.78691    16.231338    1225.4281    757638.49    758863.91   0.18040415 
   29600    108.72529    69.438217     1224.734    757634.79    758859.53   0.18196091 
   29700    108.79064   -149.14762    1225.4702    757631.07    758856.54   0.18354868 
   29800    108.69542     219.0144    1224.3976    757632.19    758856.59   0.18437045 
   29900    107.99395    98.206302    1216.4958    757634.65    758851.15   0.18578307 
   30000    109.38896    86.390246    1232.2099    757618.13    758850.34     0.186631 
   30100    107.81505   -28.500454    1214.4807    757629.92     758844.4   0.18721163 
   30200    106.65277   -133.41688    1201.3881    757646.54    758847.93   0.18835895 
   30300    108.31943    138.11944    1220.1622    757625.43    758845.59   0.18928129 
   30400    108.84077   -217.65987    1226.0348    757623.83    758849.86   0.19009143 
   30500    108.49411    160.84392    1222.1298    757630.58    758852.71   0.19174798 
   30600    109.71798   -5.7175839    1235.9162    757607.28    758843.19   0.19291708 
   30700    106.95904   -281.03611     1204.838    757636.62    758841.46   0.19432898 
   30800    109.64904    50.016192    1235.1396    757610.31    758845.45   0.19602043 
   30900    107.94474   -235.63299    1215.9415    757625.65    758841.59   0.19708185 
   31000    110.16256    355.52967    1240.9241    757592.87    758833.79   0.19846636 
   31100    109.21416   -167.67031    1230.2409    757593.18    758823.42   0.19967218 
   31200    111.10393    137.24823    1251.5282    757567.47       758819   0.20038404 
   31300    109.20284   -70.796812    1230.1134     757586.2    758816.32   0.20196096 
   31400    109.49487   -173.84752    1233.4029    757584.45    758817.86   0.20351082 
   31500     109.5565   -89.300865    1234.0972    757577.28    758811.37   0.20501251 
   31600    111.46148   -60.978074    1255.5558    757549.47    758805.02   0.20655569 
   31700    110.08634    112.28413    1240.0655       757560    758800.07   0.20756086 
   31800    109.19001   -193.97815    1229.9688    757563.53     758793.5   0.20895294 
   31900    110.51058  