LAMMPS (10 Feb 2015)
# Input file for running an NVT Equilibration in LAMMPS, Filename = in.P3HTLeeE250_150

units real
atom_style molecular
boundary p p p
bond_style harmonic
pair_style lj/cut 10
angle_style harmonic
dihedral_style opls
special_bonds lj 0 1 1
improper_style none
kspace_style none
read_data data.rewrite
  orthogonal box = (-120.23 -104.091 -102.517) to (109.574 109.748 103.397)
  1 by 1 by 1 MPI processor grid
  reading atoms ...
  140 atoms
  scanning bonds ...
  3 = max bonds/atom
  reading bonds ...
  147 bonds
  4 = max # of 1-2 neighbors
  9 = max # of 1-3 neighbors
  18 = max # of 1-4 neighbors
  21 = max # of special neighbors
thermo_style custom step temp press ke pe etotal density
dump 1 all custom 200 rewrite.lammpstrj id type mol xs ys zs vx vy vz
neighbor 10.0 bin
neigh_modify every 1 delay 0 one 2000
fix 1 all nve/limit 0.5
velocity all create 100.00000 1223
fix 2 all temp/berendsen 100.000000 100.000000 15
timestep 1
thermo 100
run 10000
Neighbor list info ...
  1 neighbor list requests
  update every 1 steps, delay 0 steps, check yes
  master list distance cutoff = 20
Memory usage per processor = 7.6434 Mbytes
Step Temp Press KinEng PotEng TotEng Density 
       0          100    101.86927     41.43326    3581.3096    3622.7429 0.00016764654 
     100    204.80217  -0.84957469    84.856214    1716.1527    1801.0089 0.00016764654 
     200    95.693741   -1.8490714    39.649036    1679.5599    1719.2089 0.00016764654 
     300    106.25101   0.46108997    44.023257    1674.6396    1718.6629 0.00016764654 
     400    94.370657   0.15923679    39.100839    1672.7763    1711.8772 0.00016764654 
     500    101.61486   0.96199891    42.102347     1668.466    1710.5684 0.00016764654 
     600    86.848021   -1.2273888    35.983966    1681.6802    1717.6641 0.00016764654 
     700    101.56749  -0.25581303     42.08272    1674.4692    1716.5519 0.00016764654 
     800    101.44332   0.22037283    42.031274    1673.4062    1715.4375 0.00016764654 
     900    89.905736   -1.9763379    37.250877    1679.6079    1716.8588 0.00016764654 
    1000    105.90049    1.8481819    43.878023    1669.6009    1713.4789 0.00016764654 
    1100    95.728697  -0.17748804     39.66352    1673.7342    1713.3978 0.00016764654 
    1200    111.24642  -0.76364578    46.093019    1670.2185    1716.3115 0.00016764654 
    1300    99.465518  0.028668899    41.211806    1674.2445    1715.4563 0.00016764654 
    1400     99.22283   0.94593649    41.111253    1672.4028     1713.514 0.00016764654 
    1500    97.281151   0.70397947    40.306752    1669.4203    1709.7271 0.00016764654 
    1600    91.710556   -1.7210172    37.998673     1673.899    1711.8977 0.00016764654 
    1700    97.446042   0.81189497    40.375072    1672.7684    1713.1434 0.00016764654 
    1800    94.840257   0.44200944     39.29541    1675.4967    1714.7921 0.00016764654 
    1900    113.52291   0.23153061    47.036242    1669.1801    1716.2163 0.00016764654 
    2000     96.24408  -0.69651965     39.87706    1676.7444    1716.6214 0.00016764654 
    2100    106.65882   -1.0911698    44.192224     1670.478    1714.6702 0.00016764654 
    2200    97.315378   0.55850672    40.320933     1673.863     1714.184 0.00016764654 
    2300    98.690862  -0.21013268    40.890841     1676.711    1717.6018 0.00016764654 
    2400    106.37669 -0.065155421    44.075329    1673.2327    1717.3081 0.00016764654 
    2500    91.584548  -0.39824954    37.946463    1676.7003    1714.6468 0.00016764654 
    2600    102.62383   0.52359507    42.520397    1668.6565    1711.1769 0.00016764654 
    2700    106.00959  0.090452834    43.923227    1668.2763    1712.1995 0.00016764654 
    2800    100.16131  0.094656595    41.500097    1671.6134    1713.1135 0.00016764654 
    2900    105.42116    0.5739903    43.679422    1671.3528    1715.0322 0.00016764654 
    3000     102.6057    0.1267639    42.512884     1673.174    1715.6869 0.00016764654 
    3100    101.47164 -0.051761173    42.043006    1672.7302    1714.7733 0.00016764654 
    3200    98.800471 0.00039290716    40.936256    1673.2908     1714.227 0.00016764654 
    3300    96.990748  -0.25959088    40.186429    1673.6058    1713.7922 0.00016764654 
    3400    102.66723  -0.42620202     42.53838     1673.672    1716.2103 0.00016764654 
    3500    100.05454   0.35610615    41.455856    1670.7414    1712.1973 0.00016764654 
    3600     105.9683    1.0195436    43.906119    1666.7143    1710.6204 0.00016764654 
    3700    98.839023   -1.1720839    40.952229     1669.967    1710.9192 0.00016764654 
    3800    103.37585   0.54304863    42.831982    1671.6753    1714.5073 0.00016764654 
    3900     103.1921   0.89735655    42.755853    1667.7638    1710.5197 0.00016764654 
    4000    99.653197  -0.03764315    41.289568    1670.8586    1712.1482 0.00016764654 
    4100    94.490419   -1.3749068     39.15046    1670.3984    1709.5488 0.00016764654 
    4200    103.50501  -0.14233732    42.885499    1665.7401    1708.6256 0.00016764654 
    4300    94.639366 -0.074162465    39.212174    1670.0046    1709.2168 0.00016764654 
    4400    94.597469  -0.78670177    39.194815    1674.1635    1713.3584 0.00016764654 
    4500    98.423694   0.16624569    40.780145    1671.7355    1712.5156 0.00016764654 
    4600    98.546992   0.44611825    40.831231    1666.7953    1707.6265 0.00016764654 
    4700    93.911186  -0.69696731    38.910466    1674.8932    1713.8036 0.00016764654 
    4800     106.0988   0.42304309    43.960192    1667.6686    1711.6288 0.00016764654 
    4900    98.689743 -0.088939979    40.890378    1668.0443    1708.9347 0.00016764654 
    5000    92.847827 -0.022408681    38.469881    1672.4533    1710.9232 0.00016764654 
    5100     104.2497  -0.26829391     43.19405    1665.2722    1708.4663 0.00016764654 
    5200    101.31588 -0.097922513    41.978471    1665.8237    1707.8022 0.00016764654 
    5300    103.91776   0.13902541    43.056515    1666.1059    1709.1624 0.00016764654 
    5400    97.561661   -1.0263456    40.422976    1670.9276    1711.3506 0.00016764654 
    5500    103.19839   0.46253021    42.758458    1670.4286    1713.1871 0.00016764654 
    5600    93.538013    0.5180246    38.755848    1673.9204    1712.6763 0.00016764654 
    5700    101.07262   -1.0140502    41.877682    1671.5955    1713.4732 0.00016764654 
    5800    100.83624   0.88971521    41.779743    1676.0614    1717.8411 0.00016764654 
    5900    97.942674   0.56917596    40.580843    1676.4228    1717.0036 0.00016764654 
    6000     102.6081   0.26963848    42.513882    1673.0098    1715.5237 0.00016764654 
    6100    93.883243  -0.50970339    38.898888    1674.6324    1713.5313 0.00016764654 
    6200    99.398174   0.50307501    41.183904    1671.9847    1713.1686 0.00016764654 
    6300    93.297869    1.5374902    38.656349    1676.3832    1715.0396 0.00016764654 
    6400    96.350985  -0.27530061    39.921354    1676.1406    1716.0619 0.00016764654 
    6500    103.73365   -0.6326075    42.980234    1670.7684    1713.7486 0.00016764654 
    6600    92.724283    1.1012075    38.418693    1673.8023     1712.221 0.00016764654 
    6700    105.14255  -0.67247315    43.563984    1668.8569    1712.4209 0.00016764654 
    6800    97.445797   0.11326533     40.37497    1673.7825    1714.1575 0.00016764654 
    6900    99.292048    1.4032871    41.139932    1669.1083    1710.2483 0.00016764654 
    7000    96.342449   0.53502801    39.917817    1668.4834    1708.4012 0.00016764654 
    7100    95.418324 0.0060677897    39.534922    1669.4851    1709.0201 0.00016764654 
    7200    94.560672  -0.75261426    39.179569    1670.3735    1709.5531 0.00016764654 
    7300    102.68891  -0.55063704    42.547365    1669.1193    1711.6666 0.00016764654 
    7400    104.58138  0.072945368    43.331476    1670.1754    1713.5069 0.00016764654 
    7500    100.91954  -0.35831168    41.814255    1668.6188     1710.433 0.00016764654 
    7600    95.641461  -0.69713254    39.627375    1670.1332    1709.7606 0.00016764654 
    7700    95.285053  -0.17666303    39.479703    1671.8996    1711.3793 0.00016764654 
    7800    103.07069  0.053479471    42.705547    1669.6273    1712.3328 0.00016764654 
    7900    102.67413   0.22065409    42.541237    1668.8314    1711.3726 0.00016764654 
    8000      102.778  -0.23306933    42.584274    1670.5229    1713.1072 0.00016764654 
    8100     97.37525   0.33504618     40.34574    1672.3094    1712.6552 0.00016764654 
    8200    97.037795   -0.2869371    40.205922    1675.7502    1715.9561 0.00016764654 
    8300    99.506468  0.023294297    41.228773    1675.6256    1716.8543 0.00016764654 
    8400    99.565158    1.2374378     41.25309    1672.9833    1714.2364 0.00016764654 
    8500    91.701528   -1.7954992    37.994932    1676.0872    1714.0821 0.00016764654 
    8600    98.122085   0.34686887    40.655178     1672.282    1712.9372 0.00016764654 
    8700    93.722518    0.5931318    38.832294    1672.4458    1711.2781 0.00016764654 
    8800    99.571755    0.4385619    41.255824    1670.8667    1712.1225 0.00016764654 
    8900    99.652699  -0.29531109    41.289361    1669.7063    1710.9957 0.00016764654 
    9000    98.189824  -0.32272284    40.683245    1670.9676    1711.6508 0.00016764654 
    9100    102.22565    0.3089983     42.35542    1667.8502    1710.2056 0.00016764654 
    9200    99.211175 -0.065531317    41.106424     1669.036    1710.1424 0.00016764654 
    9300    102.07835   0.18283907    42.294389    1669.4051    1711.6995 0.00016764654 
    9400    99.588361  -0.03422653    41.262704    1671.6005    1712.8632 0.00016764654 
    9500    101.48965   0.14606803    42.050471    1669.6551    1711.7056 0.00016764654 
    9600    96.730634  -0.95600314    40.078655    1669.7322    1709.8108 0.00016764654 
    9700    98.879479  -0.16772675    40.968991    1668.7844    1709.7534 0.00016764654 
    9800    98.883703   0.72759116    40.970741    1670.3758    1711.3465 0.00016764654 
    9900    104.97826  -0.77049863    43.495914    1664.7316    1708.2276 0.00016764654 
   10000    99.257205  0.048756717    41.125496     1666.824    1707.9495 0.00016764654 
Loop time of 0.860964 on 1 procs for 10000 steps with 140 atoms

Pair  time (%) = 0.777533 (90.3096)
Bond  time (%) = 0.030817 (3.57936)
Neigh time (%) = 0.00231147 (0.268474)
Comm  time (%) = 0.00169134 (0.196447)
Outpt time (%) = 0.0155609 (1.80738)
Other time (%) = 0.0330505 (3.83878)

Nlocal:    140 ave 140 max 140 min
Histogram: 1 0 0 0 0 0 0 0 0 0
Nghost:    0 ave 0 max 0 min
Histogram: 1 0 0 0 0 0 0 0 0 0
Neighs:    8173 ave 8173 max 8173 min
Histogram: 1 0 0 0 0 0 0 0 0 0

Total # of neighbors = 8173
Ave neighs/atom = 58.3786
Ave special neighs/atom = 11.0429
Neighbor list builds = 12
Dangerous builds = 0
unfix 1
unfix 2
write_restart restart.rewrite
