LAMMPS (10 Feb 2015)
# Input file for running an NVT Equilibration in LAMMPS, Filename = in.P3HTLeeE250_150

units real
atom_style full
boundary p p p
bond_style harmonic
dielectric 9.8
pair_style lj/cut/coul/long 10.0
angle_style harmonic
dihedral_style opls
special_bonds lj 0 1 1
improper_style none
kspace_style ewald 10
read_data data.rewrite
  orthogonal box = (-120.23 -104.091 -102.517) to (109.574 109.748 103.397)
  2 by 2 by 2 MPI processor grid
  reading atoms ...
  140 atoms
  scanning bonds ...
  3 = max bonds/atom
  scanning angles ...
  8 = max angles/atom
  reading bonds ...
  147 bonds
  reading angles ...
  270 angles
  4 = max # of 1-2 neighbors
  9 = max # of 1-3 neighbors
  18 = max # of 1-4 neighbors
  21 = max # of special neighbors
thermo_style custom step temp press ke pe etotal density
dump 1 all custom 200 rewrite.lammpstrj id type mol xs ys zs vx vy vz
neighbor 10.0 bin
neigh_modify every 1 delay 0 one 2000
fix 1 all npt temp 100 100 100 iso 0.0 1 1000 drag 2
fix 2 all momentum 1 linear 1 1 1
velocity all create 100.00000 1223
timestep 1
thermo 100
run 10000
Ewald initialization ...
WARNING: System is not charge neutral, net charge = -4.94 (../kspace.cpp:293)
  G vector (1/distance) = 0.0133813
  estimated absolute RMS force accuracy = 0.00202504
  estimated relative force accuracy = 6.09835e-06
  KSpace vectors: actual max1d max3d = 3 1 13
                  kxmax kymax kzmax  = 1 1 1
Neighbor list info ...
  1 neighbor list requests
  update every 1 steps, delay 0 steps, check yes
  master list distance cutoff = 20
Memory usage per processor = 13.3682 Mbytes
Step Temp Press KinEng PotEng TotEng Density 
       0          100    101.88211     41.43326    31633.947     31675.38 0.00016764654 
     100    1417.6088   -5.9966483    587.36154    28419.583    29006.944 0.00016569745 
     200    760.73268  -0.17044446    315.19635    28004.947    28320.143 0.00017221382 
     300    477.36572    3.1372869    197.78818    27886.783    28084.571 0.00017164853 
     400    301.58325   -2.3154506    124.95577    27851.019    27975.975 0.00016949089 
     500     240.1372   0.13959888    99.496669    27815.005    27914.502 0.00017215827 
     600    230.47466  -0.32684005    95.493163    27778.334    27873.827 0.0001724564 
     700    173.29983  0.036640765    71.803769    27777.167    27848.971 0.00017229947 
     800     156.0405   -1.6099165    64.652664    27766.043    27830.696 0.00017463267 
     900    144.41704    0.9157348    59.836688    27757.582    27817.418 0.00017678451 
    1000    133.81686  -0.82164521    55.444688    27753.266    27808.711 0.00017964737 
    1100    116.43256    1.2202164    48.241806    27752.878    27801.119 0.00018131806 
    1200     117.1575 -0.024046154    48.542172    27747.822    27796.364 0.00018454254 
    1300    109.33469    -1.112719    45.300924    27748.231    27793.532 0.00018934225 
    1400     112.6714   0.20948531    46.683434    27744.001    27790.684 0.00019303603 
    1500    104.67331  -0.68853282    43.369565    27744.456    27787.825 0.00019629028 
    1600    110.39585    1.2883678    45.740599     27740.51     27786.25 0.0002029172 
    1700    108.80586   -1.5411539    45.081814    27738.781    27783.863 0.00020805555 
    1800    95.279127   0.67069688    39.477248    27745.096    27784.574 0.00021518369 
    1900    107.76217   0.61691761    44.649378    27738.593    27783.242 0.00022107749 
    2000    100.04979   -0.6435912    41.453889    27740.884    27782.338 0.00022904213 
    2100    100.60884   0.12809438    41.685523    27739.485    27781.171 0.00023592483 
    2200    99.279123  -0.77400023    41.134577    27740.226     27781.36 0.00024443844 
    2300    104.90738   0.15699569    43.466549    27736.822    27780.288 0.00025315272 
    2400    102.62581   0.55440649     42.52122    27737.055    27779.577 0.00026659394 
    2500    96.437955   0.36814871    39.957388     27738.94    27778.897 0.00027719727 
    2600    97.220088   0.10179976    40.281451    27739.273    27779.554 0.00028749176 
    2700      97.1665    0.4110188    40.259248    27738.411     27778.67 0.00029926511 
    2800    91.830753    1.2416575    38.048474    27740.179    27778.228 0.00031605891 
    2900    100.60511   -1.0699268    41.683976     27735.98    27777.664 0.00032813511 
    3000    94.828873 -0.063832899    39.290693    27739.989     27779.28 0.00034030073 
    3100    95.522614   -0.6679748    39.578133    27737.444    27777.022 0.00035559884 
    3200    105.74885   -1.2985884    43.815197     27734.15    27777.965 0.0003720803 
    3300    96.443837   -1.7317572    39.959825    27737.254    27777.214 0.00038851892 
    3400     105.4133     2.862182    43.676165    27733.325    27777.001 0.00040180246 
    3500    95.129294  -0.55681415    39.415167    27737.865     27777.28 0.00041935323 
    3600    102.21176  -0.61517758    42.349662    27733.982    27776.332 0.00043908744 
    3700     91.09664   -4.1509286    37.744307    27740.384    27778.128 0.00045650886 
    3800    102.87468    1.0702451    42.624334     27734.17    27776.794 0.00047682521 
    3900    103.58313    3.4533587    42.917865    27733.491    27776.408 0.00049932374 
    4000    92.567696   -5.7771513    38.353814    27737.999    27776.353 0.00051782318 
    4100    106.44072   0.60200747    44.101858    27732.192    27776.294 0.00053633915 
    4200    98.935006    1.2440683    40.991998    27735.128     27776.12 0.00055683345 
    4300     98.76823   -3.7164156    40.922897    27735.425    27776.348 0.00057578248 
    4400    108.27348  -0.19025312    44.861231    27731.599     27776.46 0.00060209016 
    4500    101.37161    1.8268503    42.001564     27734.57    27776.572 0.0006256461 
    4600    100.70724    5.6027382    41.726291    27733.084    27774.811 0.00064793869 
    4700    105.35015   -6.9184045    43.650001    27730.885    27774.535 0.00067137821 
    4800    93.425366    1.7339104    38.709175     27736.59      27775.3 0.00070324996 
    4900    99.071769   -1.1523756    41.048663    27734.241    27775.289 0.00072316142 
    5000    100.78403   -2.3492281    41.758107    27732.646    27774.404 0.00075176988 
    5100    102.15095    1.4234405    42.324469    27730.757    27773.082 0.00077709043 
    5200    106.62666   -1.1563359    44.178902    27727.646    27771.824 0.00080869237 
    5300    97.645602   0.14756281    40.457756    27732.727    27773.185 0.00084264426 
    5400    97.498944   -1.7411829     40.39699    27731.892    27772.289 0.00088137395 
    5500    103.47226   -4.8158567    42.871931    27728.995    27771.866 0.00090878826 
    5600    99.883083    7.8894143    41.384817    27730.529    27771.914 0.00095275039 
    5700     104.6321    2.4096544    43.352491    27728.382    27771.735 0.00098119417 
    5800    91.873145    -4.535761    38.066039    27733.198    27771.264  0.001018728 
    5900     103.2854   -4.9933157    42.794509    27728.513    27771.308 0.0010442103 
    6000    96.926549    7.3821974    40.159829    27731.418    27771.578  0.001082804 
    6100    100.76699    1.1385714     41.75105    27730.647    27772.398 0.0011245715 
    6200    97.281663   -4.2515286    40.306964    27731.599    27771.906 0.0011558326 
    6300    107.87688   0.23129691    44.696907    27726.599    27771.295 0.0011991666 
    6400    99.718496    10.540181    41.316624    27729.585    27770.902 0.0012355512 
    6500    104.39729    4.0380106    43.255201    27728.473    27771.729 0.0012639419 
    6600    97.918612   -3.1356524    40.570873    27730.505    27771.076 0.0012965947 
    6700    103.62509   -1.1133247    42.935251    27728.221    27771.156 0.0013452549 
    6800    95.559517    18.601036    39.593423    27730.214    27769.807 0.0013774522 
    6900    107.92922   -14.257791    44.718594    27725.072    27769.791 0.0014175347 
    7000    96.437033   0.53810755    39.957006    27728.908    27768.865 0.0014554982 
    7100    99.952461   -10.457929    41.413563    27728.044    27769.457 0.0015133368 
    7200    99.876487    13.552069    41.382084     27727.08    27768.462 0.0015745151 
    7300     104.8044   -1.3286415    43.423881    27725.296     27768.72 0.0016082414 
    7400    98.978774   -15.411894    41.010132    27727.128    27768.139 0.0016485457 
    7500    94.578942  -0.75224727    39.187138    27729.705    27768.892 0.0017144123 
    7600    95.959195 -0.023186936    39.759022    27729.552    27769.311 0.0017501229 
    7700    100.22553    2.4451148    41.526702    27727.064    27768.591 0.0018199941 
    7800    103.44798   -15.199957    42.861869    27726.556    27769.418 0.0018775448 
    7900    101.61836    6.0772957    42.103799    27726.198    27768.302 0.0019290598 
    8000    100.60687   -15.489936    41.684704    27726.762    27768.447 0.0019674398 
    8100    92.967402     14.56652    38.519425    27730.303    27768.822 0.0020305396 
    8200    95.308176    -13.20691    39.489284    27729.206    27768.696 0.0020672016 
    8300    109.85225   -8.5779578    45.515369    27722.269    27767.784 0.0021292249 
    8400    101.71525    10.909306    42.143943    27726.329    27768.473  0.002177255 
    8500    96.955487    2.9935231    40.171819    27727.278    27767.449 0.0022392695 
    8600    97.723213   -16.475794    40.489912    27726.386    27766.876 0.0022548691 
    8700    93.972576     9.912385    38.935901    27728.077    27767.013 0.0023444039 
    8800    98.372976   -12.994823    40.759131    27725.939    27766.698 0.0023744754 
    8900    106.42067    3.1721025    44.093553    27721.546     27765.64  0.002450651 
    9000    98.142622   -12.627257    40.663688    27725.168    27765.832 0.0024958934 
    9100    98.510042   -22.714764    40.815922    27724.218    27765.034 0.0025473754 
    9200    100.42995   -7.9781866      41.6114    27723.461    27765.072 0.0026027433 
    9300    100.27188   -6.2747001     41.54591    27723.253    27764.799 0.0026914405 
    9400    100.26147    17.266626    41.541597     27722.96    27764.502 0.0027314319 
    9500    99.940376    -19.78983    41.408556    27723.158    27764.566 0.0028032736 
    9600    89.123683   -5.1104296    36.926847    27728.253     27765.18 0.0028672596 
    9700    104.51109    1.2454868    43.302352    27721.185    27764.487 0.0029244827 
    9800    101.29529    42.334466    41.969942    27722.265    27764.235 0.0030018181 
    9900    103.00735   -12.811088    42.679302    27720.913    27763.593 0.0030814842 
   10000    99.285751 -0.035269605    41.137323    27721.586    27762.723 0.0031500253 
Loop time of 4.14182 on 8 procs for 10000 steps with 140 atoms

Pair  time (%) = 0.277764 (6.70633)
Bond  time (%) = 0.055564 (1.34154)
Kspce time (%) = 0.983131 (23.7367)
Neigh time (%) = 0.00732595 (0.176877)
Comm  time (%) = 0.885792 (21.3865)
Outpt time (%) = 0.039553 (0.954965)
Other time (%) = 1.89269 (45.6971)

Nlocal:    17.5 ave 43 max 4 min
Histogram: 2 2 1 1 0 0 0 1 0 1
Nghost:    119 ave 131 max 90 min
Histogram: 1 0 0 1 0 0 0 1 3 2
Neighs:    960.5 ave 3523 max 128 min
Histogram: 3 2 1 1 0 0 0 0 0 1

Total # of neighbors = 7684
Ave neighs/atom = 54.8857
Ave special neighs/atom = 11.0429
Neighbor list builds = 39
Dangerous builds = 0
unfix 1
unfix 2
write_restart restart.rewrite
Ewald initialization ...
  G vector (1/distance) = 0.0133813
  estimated absolute RMS force accuracy = 0.00872541
  estimated relative force accuracy = 2.62763e-05
  KSpace vectors: actual max1d max3d = 3 1 13
                  kxmax kymax kzmax  = 1 1 1


replicate 10 10 10
  orthogonal box = (-48.5487 -37.3893 -38.2871) to (815.857 766.963 736.256)
  2 by 2 by 2 MPI processor grid
  140000 atoms
  147000 bonds
  270000 angles
  4 = max # of 1-2 neighbors
  9 = max # of 1-3 neighbors
  18 = max # of 1-4 neighbors
  21 = max # of special neighbors
undump 1
fix 1 all npt temp 100 423 100 iso 0.0 1 1000 drag 2
fix 2 all momentum 1 linear 1 1 1
velocity all create 100.00000 1223
dump 2 all custom 200 rewrite_final.lammpstrj id type mol xs ys zs vx vy vz
run 100000
Ewald initialization ...
  G vector (1/distance) = 0.0133813
  estimated absolute RMS force accuracy = 0.0103527
  estimated relative force accuracy = 3.11768e-05
  KSpace vectors: actual max1d max3d = 3 1 13
                  kxmax kymax kzmax  = 1 1 1
Memory usage per processor = 19.4914 Mbytes
Step Temp Press KinEng PotEng TotEng Density 
   10000          100  0.016720583    41731.043     27721583     27763314 0.0031500253 
   10100    102.85846    -9.833686    42923.907     27720555     27763479 0.0031549009 
   10200    99.305718    22.410576    41441.311     27722118     27763559 0.0031449939 
   10300     97.48683   0.64504495    40682.271     27722925     27763608 0.0031476525 
   10400    99.231632    1.5600796    41410.395     27722430     27763840 0.0031591661 
   10500    99.067631   -15.568121    41341.955     27722691     27764032 0.0031623212 
   10600    100.30668    8.4160872    41859.025     27722480     27764339 0.0031565794 
   10700    101.28655  -0.86677914    42267.935     27722382     27764650 0.0031733396 
   10800    101.57122    18.039974    42386.729     27722513     27764900 0.0031638968 
   10900    101.15177   -20.091541    42211.687     27722780     27764991  0.003149956 
   11000    102.24281    2.8535963    42666.992     27722588     27765255 0.0031677189 
   11100    101.41592   -6.5730142    42321.922     27723150     27765472 0.0031715594 
   11200    101.85188    2.0044574    42503.853     27723270     27765774  0.003170802 
   11300    102.13094   -4.2805391    42620.305     27723389     27766009 0.0031806292 
   11400    102.45003   -2.3809964    42753.464     27723543     27766296 0.0031829893 
   11500    102.21316   -3.6128994    42654.619     27723881     27766536 0.0031890037 
   11600    103.96334   -3.4366509    43384.986     27723324     27766709   0.00319354 
   11700    103.93163    6.1448943    43371.754     27723646     27767017 0.0031934881 
   11800    103.60381   0.22450258    43234.951     27724087     27767322 0.0031910448 
   11900    104.63617   -2.8764165    43665.766     27723941     27767607 0.0031929458 
   12000    104.49256     0.271374    43605.836     27724376     27767982 0.0031967057 
   12100    105.37424   -3.4670621    43973.767     27724278     27768251 0.0031913164 
   12200    106.03853   -5.8655181    44250.984     27724257     27768508 0.0031937214 
   12300     105.9109   0.56359665    44197.724     27724623     27768820 0.0031958479 
   12400    105.76935  -0.41054312    44138.654     27724962     27769101 0.0031937121 
   12500    107.00967    3.8490167     44656.25     27724682     27769338   0.00319116 
   12600    106.75991     -3.88717    44552.022     27725093     27769645 0.0031934343 
   12700     107.1982  -0.64848712    44734.926     27725185     27769920 0.0031922562 
   12800    107.32218  -0.88888459    44786.665     27725401     27770188 0.0031929166 
   12900    107.71646    2.4311532    44951.202     27725507     27770458 0.0031950596 
   13000    108.06775  -0.19619849      45097.8     27725597     27770694 0.0031937717 
   13100    108.38471  -0.31715421    45230.069     27725775     27771005 0.0031975121 
   13200    108.80206   -3.9656454    45404.236     27725819     27771223 0.0032009123 
   13300    108.42357    3.9688807    45246.286     27726236     27771482 0.0032003833 
   13400     109.8927   -3.7581884    45859.368     27725808     27771667  0.003205438 
   13500    109.76282    4.5345362     45805.17     27726081     27771886 0.0032102632 
   13600    110.20945   -2.3875072    45991.554     27726110     27772101 0.0032149976 
   13700    110.40112    2.5206716    46071.539     27726316     27772388 0.0032225785 
   13800    110.81847  -0.80141681    46245.703     27726349     27772595 0.0032277083 
   13900    111.08871    -1.405471    46358.477     27726455     27772813 0.0032328634 
   14000    110.93686  -0.84961263    46295.109     27726778     27773073 0.0032389398 
   14100    111.75002    1.6437917     46634.45     27726681     27773316 0.0032411872 
   14200     111.7704   -1.7193337    46642.952     27726937     27773580 0.0032444249 
   14300     112.4122    2.3700285    46910.785     27726938     27773849 0.0032499072 
   14400    112.10096   0.41115794    46780.899     27727360     27774141 0.0032538804 
   14500    112.85946   -2.0323125    47097.428     27727329     27774427 0.0032570215 
   14600    113.48078   0.91905832    47356.713     27727374     27774731 0.0032617863 
   14700    113.39871    -1.241514    47322.462     27727709     27775031 0.0032675188 
   14800     113.5659    2.4233996    47392.234     27727938     27775330 0.0032723959 
   14900    114.18688   -1.7445445    47651.376     27727928     27775579  0.003278174 
   15000    114.37298   -1.1209339    47729.039     27728122     27775851 0.0032850783 
   15100    114.91979    1.0514637    47957.227     27728159     27776116  0.003290534 
   15200    115.41923  -0.17412281    48165.649     27728179     27776345 0.0032966503 
   15300     115.3249   0.57703546    48126.285     27728466     27776592  0.003304314 
   15400     116.0692   -1.1224942    48436.889     27728397     27776834 0.0033117348 
   15500     115.9682   -1.4756728     48394.74     27728700     27777095 0.0033201363 
   15600    116.77397    1.3994354    48730.996     27728604     27777335 0.0033287286 
   15700      116.507   -1.2727409    48619.586     27728959     27777579 0.0033360216 
   15800    117.12314    1.9275498    48876.707     27728951     27777828 0.0033424573 
   15900    117.55007   -1.1100127     49054.87     27728992     27778047 0.0033494726 
   16000    117.95844    1.4527423    49225.288     27729076     27778302 0.0033555074 
   16100    118.48073   -1.4187854    49443.242     27729103     27778547 0.0033599732 
   16200    118.07714    2.6886921    49274.823     27729553     27778828  0.003364937 
   16300    119.05392  -0.87129873    49682.443     27729415     27779097 0.0033674905 
   16400     119.0266   0.97305432    49671.039     27729686     27779357 0.0033712886 
   16500    119.70539    -1.526279    49954.306     27729615     27779569 0.0033746247 
   16600     119.8864    2.1226502    50029.846     27729800     27779830 0.0033782941 
   16700    120.53194   -1.6592335    50299.235     27729744     27780043 0.0033820263 
   16800    120.49021    2.4111049    50281.821     27730017     27780299 0.0033862713 
   16900    120.54748  -0.86131823    50305.722     27730204     27780510 0.0033905257 
   17000    121.24952    1.6851168    50598.689     27730162     27780760 0.0033942603 
   17100    121.17871   -1.0181227    50569.138     27730469     27781039 0.0034000407 
   17200     121.5514   0.82624105    50724.666     27730589     27781314 0.0034055347 
   17300    122.05651   0.37724233    50935.453     27730655     27781590  0.003411905 
   17400    122.56926    1.1858223    51149.431     27730669     27781818 0.0034169791 
   17500    123.00703   -1.1122682    51332.117     27730718     27782050 0.0034221026 
   17600    122.97233   0.71377328    51317.634     27731000     27782318 0.0034279402 
   17700    123.75097  0.044127594     51642.57     27730882     27782524 0.0034352081 
   17800    123.58644    1.3046528    51573.908     27731193     27782767 0.0034405712 
   17900    124.19147  0.083621786    51826.395     27731172     27782999 0.0034469401 
   18000    123.86629  -0.22975379    51690.692     27731530     27783221  0.003453379 
   18100    124.55972   0.31490773    51980.069     27731536     27783516  0.003459902 
   18200    124.98393 -0.098293099    52157.097     27731623     27783781 0.0034654167 
   18300    125.30671   0.49922148    52291.799     27731756     27784048 0.0034728046 
   18400    125.71259  0.033371787    52461.175     27731862     27784323  0.003478087 
   18500     126.0664    -1.271779    52608.823     27731964     27784572 0.0034835072 
   18600    126.13033  -0.94747673      52635.5     27732202     27784837 0.0034883442 
   18700    126.24839 -0.027427449    52684.769     27732416     27785100 0.0034957395 
   18800    126.71711   0.97281789    52880.369     27732484     27785364 0.0035008645 
   18900    127.05263    -1.148591    53020.388     27732608     27785629 0.0035085557 
   19000    127.25883   0.52196103    53106.435     27732799     27785905 0.0035158443 
   19100    127.91977 -0.078513061    53382.254     27732764     27786146 0.0035231832 
   19200    128.59131   -0.7751117    53662.496     27732693     27786356 0.0035297781 
   19300    128.57207   0.50420714    53654.464     27732964     27786618 0.0035367677 
   19400    129.00313  -0.56323947    53834.351     27733037     27786871 0.0035447326 
   19500    128.99555  0.056062906    53831.186     27733290     27787122 0.0035539243 
   19600    129.26031   0.42257524    53941.674     27733412     27787354  0.003562561 
   19700    129.72626   -2.0606384    54136.123     27733469     27787605 0.0035698583 
   19800     130.1315    1.2746156     54305.23     27733543     27787848 0.0035781504 
   19900    130.20061  -0.72286535    54334.072     27733745     27788079 0.0035860017 
   20000    131.04877    1.1289452    54688.017     27733630     27788318 0.0035937897 
   20100    131.25027   -1.5483445    54772.107     27733758     27788530 0.0035999122 
   20200    131.54775  0.029283192    54896.249     27733847     27788743 0.0036085403 
   20300    131.81315     1.206827    55007.003     27733942     27788949 0.0036167076 
   20400    132.22689   0.53846959    55179.661     27733976     27789155 0.0036237005 
   20500    132.30518  -0.66192648    55212.333     27734204     27789417 0.0036318498 
   20600    132.76328  -0.41600864    55403.499     27734236     27789639 0.0036377688 
   20700    133.02137   0.55521443    55511.205     27734346     27789857 0.0036456199 
   20800    133.56027  -0.75399749    55736.095     27734350     27790086 0.0036533793 
   20900     134.0563  0.012954693     55943.09     27734383     27790326 0.0036607507 
   21000    134.12939   -1.9050385    55973.593     27734583     27790556 0.0036673082 
   21100    134.61084    1.1315663    56174.509     27734619     27790794 0.0036744459 
   21200    134.70803   -0.4507537    56215.066     27734840     27791055 0.0036813737 
   21300    134.74038   0.17864111    56228.565     27735077     27791305 0.0036884357 
   21400     135.3473  -0.52747327    56481.841     27735105     27791587  0.003695009 
   21500    135.41413 -0.052575184    56509.728     27735309     27791819 0.0037016702 
   21600    136.13007   0.96089551    56808.499     27735235     27792044 0.0037094665 
   21700     136.0938   0.24725243    56793.362     27735509     27792302 0.0037160211 
   21800    136.73974   0.10362001    57062.918     27735472     27792535 0.0037220532 
   21900    136.85172   0.32546725    57109.649     27735674     27792784 0.0037300373 
   22000    137.70828   -1.6739233      57467.1     27735583     27793050 0.0037367825 
   22100    137.40043  -0.22080022    57338.633     27735956     27793294 0.0037442756 
   22200    137.94826    0.1323818    57567.249     27735989     27793557 0.0037513377 
   22300    138.24246   -1.0146733    57690.021     27736121     27793811 0.0037581678 
   22400    138.45514   0.71530092    57778.775     27736263     27794042 0.0037645403 
   22500    138.68887  -0.52627545    57876.311     27736412     27794288  0.003772357 
   22600     139.7641  -0.32892123    58325.016     27736193     27794518 0.0037788994 
   22700    139.40194  -0.13202207    58173.884     27736635     27794808 0.0037872213 
   22800    140.05181   0.18397877    58445.082     27736603     27795048 0.0037940979 
   22900    140.10942  -0.62491241     58469.12     27736836     27795305 0.0038007344 
   23000    140.60276   0.13935166    58674.998     27736865     27795540 0.0038086275 
   23100    140.67473   0.47542522    58705.031     27737104     27795809 0.0038172589 
   23200    140.83982  0.003097546    58773.924     27737261     27796034 0.0038250939 
   23300    141.31246  -0.26021076    58971.163     27737291     27796262 0.0038322239 
   23400    141.94304  -0.12478071    59234.309     27737258     27796492 0.0038407395 
   23500    142.41727  -0.31679182    59432.213     27737304     27796736 0.0038502019 
   23600    142.60896   0.57878468    59512.207     27737450     27796962 0.0038568236 
   23700    142.81628  -0.80396224    59598.721     27737605     27797204 0.0038670892 
   23800    143.13651   0.47297339    59732.359     27737713     27797445 0.0038758919 
   23900    143.45914  -0.45176662    59866.994     27737801     27797668 0.0038845354 
   24000    143.54599   0.27310712    59903.237     27737993     27797896  0.003894025 
   24100    144.54149  -0.81367044    60318.669     27737850     27798168 0.0039019213 
   24200    144.44756   0.11865868    60279.471     27738098     27798377 0.0039107554 
   24300    144.82919   -1.0029038    60438.732     27738121     27798559 0.0039197777 
   24400    145.33843    2.1129752    60651.243     27738159     27798811 0.0039299577 
   24500    145.50964   -1.0593218    60722.691     27738305     27799027 0.0039374026 
   24600     145.6328   0.75451516    60774.087     27738439     27799213 0.0039483263 
   24700    146.10891  -0.13845237    60972.772     27738469     27799442 0.0039560847 
   24800      146.343  -0.62629166    61070.459     27738610     27799680 0.0039664022 
   24900    146.80622    0.0521531    61263.768     27738653     27799917 0.0039746632 
   25000    147.42635  -0.72928774    61522.555     27738615     27800138 0.0039842625 
   25100     147.4819   0.49066555    61545.734     27738809     27800355 0.0039943405 
   25200    147.71689   -1.9087276      61643.8     27738972     27800616 0.0040025557 
   25300     147.8406   0.65923996    61695.422     27739171     27800867 0.0040121134 
   25400    148.45036   0.56386035    61949.883     27739179     27801128 0.0040207405 
   25500    148.57656   0.23881403    62002.549     27739352     27801354 0.0040282305 
   25600    148.80864  -0.16860217    62099.396     27739498     27801598 0.0040360456 
   25700    149.18184   0.99468151    62255.137     27739616     27801871 0.0040468006 
   25800    149.48367  -0.88769538    62381.092     27739740     27802121 0.0040554838 
   25900    149.74133   0.89504534    62488.619     27739860     27802349 0.0040637287 
   26000    149.84799   -1.0924675    62533.127     27740068     27802601 0.0040711158 
   26100    150.59648  -0.47338284    62845.483     27740000     27802846 0.0040810761 
   26200    150.85339   0.80324573    62952.693     27740137     27803089 0.0040894508 
   26300    151.54946  -0.63316173     63243.17     27740072     27803315 0.0040982655 
   26400     151.7979  -0.59423582    63346.845     27740154     27803501 0.0041048629 
   26500    151.78113  -0.25988158    63339.849     27740415     27803755 0.0041149547 
   26600    151.87515  -0.11203895    63379.083     27740590     27803969 0.0041248931 
   26700     152.1556   0.56797989    63496.118     27740750     27804246 0.0041338588 
   26800    152.99257   -0.4752915    63845.395     27740613     27804459  0.004140357 
   26900    153.30536  -0.68894829    63975.925     27740674     27804650 0.0041503452 
   27000    153.95177   0.61403473     64245.68     27740657     27804903 0.0041586397 
   27100    153.73192  -0.30600815    64153.932     27740965     27805119 0.0041681546 
   27200    154.20613   0.15590584    64351.825     27741008     27805359 0.0041785396 
   27300    154.81058  -0.37843409    64604.068     27740984     27805588 0.0041876594 
   27400    155.12534   0.11421061    64735.421     27741093     27805829 0.0041973009 
   27500    155.12938   0.56238067    64737.108     27741318     27806055 0.0042059675 
   27600    155.75819  -0.94122445    64999.517     27741300     27806300 0.0042131566 
   27700     155.2812   0.61900272    64800.464     27741738     27806539 0.0042227369 
   27800    156.23894  -0.84108283    65200.138     27741516     27806716 0.0042320536 
   27900    156.96845    1.0451741    65504.572     27741412     27806916 0.0042428218 
   28000    156.76803  -0.32669548    65420.935     27741736     27807157 0.0042520861 
   28100    156.94073  -0.19810171    65493.002     27741911     27807404 0.0042612921 
   28200    157.46862    -0.316733    65713.297     27741896     27807609  0.004271997 
   28300    157.66234  0.097942181    65794.136     27742018     27807812 0.0042824534 
   28400    157.71401 -0.095147766    65815.702     27742210     27808026  0.004291213 
   28500    158.04644   0.15682281    65954.427     27742301     27808255 0.0043029415 
   28600    158.53643  -0.36672167    66158.907     27742314     27808473 0.0043125665 
   28700    159.00626   0.45589755     66354.97     27742352     27808707 0.0043225282 
   28800    159.69378  -0.32662065    66641.878     27742282     27808924  0.004334125 
   28900    160.05997   0.88401483    66794.693     27742354     27809149 0.0043428067 
   29000    160.03143   0.74657706    66782.785     27742659     27809442 0.0043546208 
   29100    160.43649    1.2691337    66951.819     27742669     27809621 0.0043631534 
   29200    160.56588   -0.7377252    67005.818     27742847     27809852 0.0043732035 
   29300    160.85709  -0.31604166    67127.342     27742922     27810049 0.0043826174 
   29400    160.76827    0.3451823    67090.274     27743213     27810303 0.0043941386 
   29500    161.38654  -0.73655877    67348.284     27743162     27810511  0.004403701 
   29600     161.7557   0.47697632    67502.339     27743241     27810743 0.0044143769 
   29700    162.17596   -2.4987034    67677.719     27743334     27811012 0.0044239582 
   29800    162.05329   0.44965889    67626.527     27743607     27811233 0.0044349655 
   29900    163.01922   -1.8999042    68029.619     27743424     27811454 0.0044451315 
   30000    163.43101   0.69336204    68201.463     27743509     27811710 0.0044552752 
   30100    163.32187  0.079067865    68155.918     27743767     27811923 0.0044645254 
   30200    164.00483    1.3496902    68440.926     27743719     27812160 0.0044754775 
   30300    164.52909  -0.60500165    68659.706     27743737     27812397 0.0044850514 
   30400    164.58803   0.33427728    68684.299     27743954     27812638 0.0044952791 
   30500    164.42044  -0.27526437    68614.364     27744263     27812878 0.0045057512 
   30600    164.92361   0.45574842    68824.343     27744328     27813152 0.0045160334 
   30700    165.40284   0.51162366    69024.328     27744352     27813376 0.0045274971 
   30800    165.82713  -0.82249336     69201.39     27744397     27813598 0.0045369468 
   30900    165.96619  -0.46541482    69259.421     27744547     27813806  0.004547588 
   31000    166.35444  -0.20789507    69421.443     27744621     27814043 0.0045576092 
   31100    166.95873    0.1053918     69673.62     27744592     27814265 0.0045682246 
   31200      167.254    0.9542124    69796.836     27744643     27814440 0.0045771993 
   31300    167.75847 -0.053205545    70007.358     27744643     27814650   0.00458795 
   31400    167.95523 -0.00085266332     70089.47     27744785     27814874 0.0045989959 
   31500    168.56837  -0.82865532    70345.339     27744744     27815089 0.0046085508 
   31600    168.41809   -1.2173612    70282.625     27745005     27815287 0.0046184656 
   31700    168.89345   -0.2283721    70480.998     27745022     27815503 0.0046284339 
   31800    169.02122   0.32960712    70534.319     27745213     27815747 0.0046407299 
   31900    169.46892  -0.31877997    70721.145     27745276     27815997 0.0046516113 
   32000    169.72687   0.69174665    70828.793     27745404     27816233 0.0046622088 
   32100    170.08186 -0.045105035    70976.933     27745467     27816444 0.0046728066 
   32200    170.80147   0.53051372    71277.235     27745359     27816636 0.0046838548 
   32300    170.97786   0.63509797    71350.845     27745491     27816842  0.004693934 
   32400      170.707  -0.57404966    71237.812     27745846     27817084 0.0047040771 
   32500    171.33342   0.50863496    71499.222     27745790     27817289 0.0047158902 
   32600    172.20407   -1.4710522    71862.552     27745678     27817540 0.0047264342 
   32700    172.13499   0.51106452    71833.726     27745872     27817706 0.0047397593 
   32800    172.18837  -0.35295722    71856.003     27746067     27817923 0.0047511917 
   32900    172.37878    0.4020106    71935.464     27746238     27818173 0.0047616845 
   33000     172.9483   0.19985975     72173.13     27746213     27818386 0.0047728668 
   33100    173.11696    1.1484093    72243.512     27746374     27818618 0.0047836517 
   33200    173.48999   0.80240888    72399.181     27746449     27818849 0.0047945857 
   33300    173.69129   0.48927745    72483.188     27746559     27819042 0.0048075974 
   33400    174.56177 -0.053379005    72846.446     27746410     27819257 0.0048183275 
   33500    174.48202   -2.1848061    72813.168     27746678     27819492 0.0048294657 
   33600    174.38653     2.081465    72773.318     27746911     27819684 0.0048416087 
   33700    175.35128  -0.87826969    73175.918     27746756     27819932 0.0048515712 
   33800    175.91632   0.61421577    73411.714     27746734     27820146 0.0048651467 
   33900    176.06089   -1.7036196    73472.045     27746901     27820373 0.0048776415 
   34000    176.22581   0.12887253    73540.867     27747060     27820601 0.0048909998 
   34100    176.57677   -1.5087956    73687.327     27747150     27820837 0.0049014461 
   34200    176.57397  -0.53359359    73686.157     27747367     27821053  0.004911434 
   34300    176.92637  -0.75729739    73833.221     27747462     27821296  0.004923402 
   34400    177.80258    1.2769875    74198.872     27747300     27821499 0.0049354075 
   34500    177.45629   -1.7846859    74054.358     27747667     27821722 0.0049440607 
   34600    178.42771   0.12942327    74459.742     27747450     27821909 0.0049551936 
   34700    178.62444   -1.2130798    74541.841     27747583     27822125 0.0049658069 
   34800     178.6967   0.22150959    74571.994     27747724     27822296 0.0049779697 
   34900    178.98632   0.32067546    74692.858     27747814     27822507 0.0049909623 
   35000    179.49048   -1.5891205     74903.25     27747841     27822744 0.0050017237 
   35100    179.75727   0.45557219    75014.583     27747957     27822972 0.0050133369 
   35200    179.75264  -0.69410824    75012.652     27748174     27823186  0.005025239 
   35300    180.64936   -1.1096034    75386.862     27747981     27823368 0.0050366002 
   35400     180.0099   -1.2914593    75120.007     27748472     27823592 0.0050481037 
   35500    180.92075     1.044723    75500.114     27748360     27823861 0.0050615164 
   35600    181.23505   0.49390538    75631.275     27748403     27824034 0.0050707529 
   35700    181.73452   0.74660477    75839.709     27748427     27824266 0.0050837422 
   35800    182.08569  -0.58020386    75986.255     27748483     27824469 0.0050963157 
   35900    182.84669  -0.86396947    76303.831     27748364     27824668 0.0051071756 
   36000    182.53035   -1.6841954    76171.819     27748731     27824903  0.005118556 
   36100    183.18498    1.0239701    76445.001     27748667     27825112  0.005128372 
   36200    183.45932  -0.37448593    76559.486     27748766     27825326 0.0051412957 
   36300    183.25205   0.49251731    76472.993     27749063     27825536 0.0051532392 
   36400    184.06256       0.5869    76811.226     27748911     27825722 0.0051661363 
   36500    184.01506   -1.2885876    76791.405     27749164     27825955 0.0051773282 
   36600    185.01231  -0.11081507    77207.565     27748914     27826122 0.0051905471 
   36700    184.87399  -0.28611654    77149.842     27749198     27826348 0.0052021825 
   36800    185.75273   0.22825264    77516.552     27749038     27826555  0.005213734 
   36900    185.78452   -2.6460683    77529.819     27749289     27826819   0.00522403 
   37000    185.81343   0.29622233    77541.884     27749475     27827017 0.0052375396 
   37100    186.36584  -0.64773244     77772.41     27749470     27827243 0.0052503997 
   37200    186.82812    1.2525441    77965.322     27749468     27827434 0.0052632579 
   37300     187.0096   -1.8215224    78041.057     27749595     27827636 0.0052760668 
   37400    186.93399   0.73944591    78009.504     27749842     27827852 0.0052893422 
   37500    187.64303  -0.88713573    78305.393     27749738     27828044 0.0053022067 
   37600    188.17019  -0.48266643    78525.382     27749748     27828273   0.00531542 
   37700    188.23825   0.29153612    78553.783     27749929     27828483 0.0053274127 
   37800    188.52139    0.4598308    78671.944     27750058     27828730 0.0053410186 
   37900    188.71169   0.64813154    78751.358     27750198     27828949 0.0053518425 
   38000    189.57038  -0.49301887    79109.696     27750001     27829111 0.0053648721 
   38100    189.09247  -0.83395851     78910.26     27750420     27829330 0.0053783996 
   38200    189.31976   0.41264686    79005.108     27750571     27829576 0.0053903245 
   38300    190.28545    1.7141209    79408.102     27750359     27829767  0.005405362 
   38400    190.32139   0.72033673    79423.101     27750561     27829984 0.0054164244 
   38500    191.53879   0.73426778    79931.136     27750229     27830160 0.0054287425 
   38600    191.23863   0.83877764    79805.873     27750561     27830367 0.0054415799 
   38700    191.22136  -0.27032187    79798.666     27750795     27830594 0.0054526339 
   38800    191.75369   -2.5858052    80020.816     27750744     27830764 0.0054662742 
   38900    191.88679   -0.1353375    80076.358     27750919     27830995  0.005479984 
   39000    192.22948    1.7767543    80219.367     27750996     27831216 0.0054923206 
   39100    192.38278  -0.41055972    80283.342     27751146     27831429 0.0055059632 
   39200    193.10687   0.87675882     80585.51     27751083     27831668 0.0055175028 
   39300    193.29639  -0.63753403      80664.6     27751237     27831901 0.0055282608 
   39400    193.73666 -0.047141996    80848.328     27751241     27832090 0.0055387235 
   39500    194.19186   -1.1557719    81038.289     27751256     27832294 0.0055544403 
   39600    194.69631   -1.7922146    81248.798     27751271     27832520 0.0055676054 
   39700     194.3802    1.0859937    81116.883     27751628     27832745 0.0055811142 
   39800    195.16396    1.7342674    81443.956     27751511     27832955 0.0055920935 
   39900     195.4779  0.070785645    81574.964     27751590     27833165 0.0056046715 
   40000    194.97846   0.59988511    81366.545     27752009     27833376 0.0056176257 
   40100    195.50007  -0.74702011    81584.217     27751995     27833579 0.0056304932 
   40200    196.88857  -0.78085811    82163.651     27751627     27833790 0.0056420133 
   40300    196.01208   0.45448418    81797.886     27752191     27833988 0.0056516145 
   40400     196.8722   0.31132253    82156.823     27752076     27834233 0.0056660885 
   40500     197.4815  0.064326409    82411.088     27752006     27834417 0.0056779766 
   40600    197.77043   0.46064986    82531.662     27752094     27834626 0.0056924833 
   40700    197.72025   0.54867796    82510.721     27752328     27834838 0.0057068561 
   40800    198.18229    1.1824781    82703.534     27752389     27835093 0.0057191038 
   40900    198.25612  -0.49963712    82734.348     27752527     27835262 0.0057322622 
   41000    199.08273    2.0157044    83079.299     27752367     27835447 0.0057477234 
   41100    199.24072   0.17439694    83145.231     27752500     27835645 0.0057593637 
   41200    200.15591   0.48538148    83527.149     27752340     27835867 0.0057700379 
   41300    200.12807   -1.4752778    83515.531     27752539     27836054 0.0057851965 
   41400    200.27787   0.24566349    83578.044     27752658     27836236 0.0057975237 
   41500    200.60376  -0.43245359    83714.039     27752691     27836405 0.0058101114 
   41600    201.16053   0.92130126    83946.388     27752682     27836628 0.0058261043 
   41700    201.39052  -0.41991993    84042.365     27752768     27836810 0.0058366606 
   41800    201.49891    1.8874347    84087.595     27752935     27837022 0.0058534276 
   41900     202.0329   0.16784164    84310.434     27752951     27837261 0.0058674672 
   42000    201.65353  -0.17249921     84152.12     27753323     27837475 0.0058796091 
   42100     202.1404    1.0275465    84355.298     27753337     27837692 0.0058927143 
   42200    202.92761   0.26878251    84683.806     27753208     27837892 0.0059066664 
   42300    203.32097    2.5080651    84847.961     27753274     27838122 0.0059190238 
   42400    203.78055   -2.2037047     85039.75     27753243     27838283 0.0059292121 
   42500    203.88518    1.3268809    85083.411     27753390     27838473 0.0059466306 
   42600    203.88249   -1.3217289    85082.289     27753618     27838700 0.0059584419 
   42700    204.49797   -1.3086608    85339.136     27753552     27838891 0.0059735021 
   42800    205.40581  -0.43789015    85717.986     27753367     27839085 0.0059859799 
   42900    204.71143   -1.4450951    85428.214     27753866     27839294 0.0059959168 
   43000    205.35051    2.4762006    85694.908     27753774     27839469 0.0060100024 
   43100    205.44917    0.6958895    85736.079     27753973     27839709 0.0060231658 
   43200    206.05127   -1.2659288    85987.344     27753925     27839912 0.0060377896 
   43300    205.97289   -2.1283336    85954.634     27754129     27840084  0.006050508 
   43400    206.95977   0.42841554    86366.471     27753929     27840296 0.0060647811 
   43500    206.97938   -1.2768039    86374.655     27754098     27840472 0.0060800017 
   43600    207.58562   -2.5466875    86627.645     27754072     27840699 0.0060935278 
   43700    207.60671   -1.0095021    86636.445     27754246     27840882 0.0061093691 
   43800    207.66527    2.3902614    86660.883     27754394     27841055 0.0061209068 
   43900    207.97868   0.11789911    86791.673     27754513     27841305 0.0061388654 
   44000    207.96509   -1.7188078    86786.002     27754762     27841548 0.0061489344 
   44100    209.24487   -1.9696379    87320.064     27754402     27841722 0.0061630233 
   44200    209.44386    1.3648416    87403.106     27754513     27841916 0.0061766249 
   44300    209.65201 -0.086448762    87489.968     27754637     27842127  0.006192475 
   44400    210.55491   -1.0130067    87866.761     27754418     27842284 0.0062068069 
   44500    210.35453    1.6076739     87783.14     27754728     27842511 0.0062195406 
   44600    211.11903   -1.7900103    88102.171     27754638     27842740  0.006231052 
   44700    211.05652  0.086135238    88076.086     27754855     27842931 0.0062474018 
   44800     211.4136   -1.2622986      88225.1     27754899     27843125 0.0062599131 
   44900    211.61272  -0.54992918    88308.194     27755021     27843329 0.0062735631 
   45000    211.97891    0.3671278     88461.01     27755078     27843539 0.0062907544 
   45100    212.10324   0.19921807    88512.893     27755213     27843726 0.0063066464 
   45200    212.43257    2.1055379    88650.324     27755290     27843940 0.0063201962 
   45300    212.32761  -0.48959147    88606.525     27755497     27844103 0.0063359008 
   45400    213.07808   0.85836282    88919.703     27755433     27844353 0.0063514368 
   45500    213.32199   -1.8037421    89021.491     27755533     27844555 0.0063629815 
   45600    213.25467    1.8459869    88993.399     27755757     27844750 0.0063767289 
   45700    213.86503   -1.3865027    89248.106     27755707     27844955 0.0063905818 
   45800    214.45035  -0.56573426    89492.367     27755655     27845147 0.0064020685 
   45900    214.97878    0.4250422    89712.887     27755633     27845346 0.0064167536 
   46000    214.86063    1.1102985    89663.579     27755890     27845554 0.0064315834 
   46100    215.31847   0.52042106    89854.641     27755856     27845711 0.0064442168 
   46200     215.5535  -0.23685725    89952.722     27755956     27845909 0.0064579239 
   46300    215.41272   0.18138947    89893.974     27756266     27846160 0.0064700781 
   46400    216.42605  -0.87399871    90316.847     27756050     27846367 0.0064840486 
   46500    216.68744   -1.3643363    90425.928     27756155     27846580 0.0064940837 
   46600    217.03034   0.56834196    90569.025     27756230     27846799 0.0065096429 
   46700    217.48019  0.038419741    90756.751     27756227     27846984 0.0065238718 
   46800    217.61778  -0.62425422    90814.169     27756394     27847209 0.0065398009 
   46900    217.71871    -2.041223    90856.287     27756536     27847392 0.0065545065 
   47000    218.49338    0.9309964    91179.565     27756405     27847584 0.0065690658 
   47100    218.67121  -0.38654697    91253.775     27756560     27847814 0.0065831026 
   47200    218.75371   0.88430878    91288.206     27756717     27848005 0.0065958389 
   47300    218.95071  -0.39454233    91370.413     27756841     27848211 0.0066098102 
   47400    219.85653    1.3549057    91748.423     27756637     27848386 0.0066236919 
   47500    220.36311  -0.23655089    91959.824     27756641     27848601 0.0066348773 
   47600    220.11117    -1.197714    91854.685     27756935     27848790  0.006649868 
   47700     220.1781   0.70849942    91882.616     27757098     27848981 0.0066643908 
   47800    220.54492  -0.75851836    92035.696     27757185     27849221 0.0066781132 
   47900    221.00116   -0.6808284    92226.089     27757180     27849406 0.0066931961 
   48000    221.25766   0.28195837    92333.127     27757305     27849638 0.0067119735 
   48100    221.45487  0.079996308    92415.426     27757411     27849826 0.0067261096 
   48200    222.89369    2.1352003    93015.859     27757029     27850045 0.0067404771 
   48300    222.37089   -1.1353211     92797.69     27757425     27850223 0.0067560035 
   48400    223.07967  0.037773116    93093.471     27757279     27850373 0.0067697416 
   48500    223.51338  -0.20188188    93274.464     27757283     27850557 0.0067860495 
   48600    223.00876   0.14538219    93063.882     27757687     27850751 0.0067993364 
   48700    223.47688 -0.024736964    93259.233     27757679     27850939 0.0068154974 
   48800    224.39188   -0.6930789    93641.073     27757507     27851148 0.0068303636 
   48900    224.39911    1.1559226     93644.09     27757697     27851341 0.0068445137 
   49000    224.62297   0.76699507    93737.508     27757822     27851560 0.0068571675 
   49100    224.49632    1.2459303    93684.653     27758134     27851819 0.0068690121 
   49200    224.83904   -1.3458647    93827.677     27758222     27852049 0.0068847926 
   49300    226.11657    1.8589304    94360.804     27757903     27852264 0.0068995021 
   49400    226.12836    1.9254619    94365.723     27758115     27852480 0.0069124779 
   49500    225.92976   0.10957365    94282.844     27758368     27852651 0.0069264856 
   49600    226.63499    2.3325594    94577.146     27758260     27852837 0.0069431636 
   49700    226.92375   -1.5675603    94697.646     27758352     27853050 0.0069551284 
   49800    227.11468    2.0350313    94777.324     27758433     27853211 0.0069699115 
   49900    227.87746   -1.2477675     95095.64     27758306     27853402 0.0069878105 
   50000    228.40715    1.5917426    95316.684     27758276     27853593 0.0070025036 
   50100    228.39361  -0.13946448    95311.033     27758481     27853792 0.0070150357 
   50200    228.21558  0.080823261    95236.743     27758708     27853945 0.0070300257 
   50300    228.25443   -1.4548786    95252.955     27758906     27854159 0.0070417084 
   50400    228.92584    1.1988317     95533.14     27758887     27854420 0.0070578452 
   50500    230.33571   0.65878459    96121.492     27758493     27854615 0.0070715257 
   50600    229.90527   0.36923512    95941.865     27758858     27854800 0.0070859702 
   50700    230.31503   -1.0724074    96112.861     27758839     27854952 0.0071052895 
   50800    230.42712   0.75635187    96159.638     27758980     27855139 0.0071214954 
   50900    231.14686   -2.3422147    96459.994     27758891     27855351 0.0071321023 
   51000    231.78841    3.2357517    96727.718     27758870     27855598 0.0071478949 
   51100    231.82692   -2.3339913    96743.793     27758985     27855729 0.0071623813 
   51200    231.65511    0.9227774    96672.092     27759263     27855935 0.0071825249 
   51300     232.1089   -1.1077153    96861.464     27759238     27856100 0.0071971872 
   51400    233.02302   0.14936642    97242.938     27759067     27856310 0.0072099857 
   51500    233.33423    -0.198321    97372.809     27759135     27856508 0.0072240018 
   51600    232.72519   -1.7699847    97118.648     27759573     27856692 0.0072385934 
   51700    233.27193  0.026227483    97346.808     27759575     27856922 0.0072542582 
   51800    234.19942  -0.80358678    97733.861     27759446     27857180 0.0072673438 
   51900    234.74124   -2.1280247    97959.966     27759402     27857362 0.0072793467 
   52000    234.02768 -0.074580132    97662.189     27759924     27857586 0.0072940335 
   52100    234.40517   0.41241435    97819.722     27759954     27857774 0.0073092407 
   52200     235.4637   0.20426123    98261.455     27759752     27858013 0.0073262575 
   52300    235.54982    0.8262868    98297.396     27759928     27858225 0.0073411866 
   52400    235.94199  -0.71349524    98461.051     27759938     27858399 0.0073585095 
   52500    236.50177    1.1702419    98694.653     27759912     27858606 0.0073757639 
   52600    236.21081   0.74778258    98573.236     27760270     27858844 0.0073872631 
   52700    236.72967   0.40264981    98789.759     27760267     27859057 0.0074015078 
   52800    237.31204    2.0126976    99032.787     27760174     27859207 0.0074134518 
   52900    237.35885   -2.4177655    99052.323     27760342     27859395 0.0074279822 
   53000    238.01545  -0.16347043    99326.329     27760242     27859568 0.0074424461 
   53100    237.97479    -1.536024     99309.36     27760375     27859684 0.0074611814 
   53200    238.80075   0.63244348    99654.044     27760223     27859878 0.0074762461 
   53300    237.90048    1.1683243    99278.352     27760804     27860082 0.0074919744 
   53400    238.75488   -1.2329515      99634.9     27760651     27860286  0.007504977 
   53500     239.9135   -2.4984642    100118.41     27760357     27860476 0.0075237555 
   53600    239.47758  -0.38525368    99936.491     27760720     27860656 0.0075401673 
   53700    240.22252   -2.1551887    100247.36     27760639     27860886 0.0075551332 
   53800    240.08763    4.5410791    100191.07     27760870     27861061 0.0075710489 
   53900    240.97171  -0.83919049    100560.01     27760670     27861230 0.0075869212 
   54000    241.08736    -1.074642    100608.27     27760819     27861427 0.0076043813 
   54100    241.55867   0.56416726    100804.95     27760771     27861576 0.0076188371 
   54200    241.51162   0.23469949    100785.32     27760957     27861743 0.0076383714 
   54300     241.9488  -0.73346901    100967.76     27760950     27861918 0.0076557787 
   54400    242.33546    2.5867398    101129.12     27760962     27862091 0.0076703138 
   54500    242.94584   -1.7488455    101383.83     27760910     27862293 0.0076828013 
   54600    243.49603     1.948418    101613.43     27760865     27862479 0.0076968086 
   54700    242.83206  -0.88540293    101336.35     27761364     27862700 0.0077117471 
   54800    244.18851  0.065543975    101902.41     27760960     27862863 0.0077302456 
   54900    244.35798   0.21984924    101973.13     27761069     27863042 0.0077432799 
   55000    244.27715  -0.20010471     101939.4     27761334     27863273 0.0077575472 
   55100    244.46872    2.4002768    102019.35     27761447     27863466 0.0077743564 
   55200    244.02585   -0.6661652    101834.53     27761786     27863621 0.0077910808 
   55300    245.02246   0.59870667    102250.43     27761608     27863858 0.0078063023 
   55400    245.26071   -1.2073611    102349.85     27761718     27864068 0.0078217889 
   55500    245.73106   0.49775597    102546.13     27761717     27864263 0.0078351732 
   55600    245.37549   -1.8744378    102397.75     27762073     27864471 0.0078539486 
   55700    246.75831    1.5257614    102974.82     27761699     27864674 0.0078695823 
   55800    246.92224  -0.96055574    103043.23     27761822     27864866 0.0078855161 
   55900    247.11926    1.7053564    103125.44     27761959     27865085 0.0079005223 
   56000    247.23645    2.2133424    103174.35     27762092     27865266 0.0079162252 
   56100    247.06356     1.491723     103102.2     27762367     27865470  0.007930941 
   56200    247.91698   -1.6974647    103458.34     27762210     27865669 0.0079480358 
   56300    248.47615   -1.9942244    103691.69     27762145     27865837 0.0079604236 
   56400    248.80182    1.7426918    103827.59     27762195     27866023 0.0079783646 
   56500    249.31791    0.2602526    104042.96     27762182     27866225 0.0079925603 
   56600    248.58644    3.1133451    103737.71     27762656     27866394  0.008006043 
   56700    249.85235   -0.7126766    104265.99     27762294     27866560 0.0080193792 
   56800    250.38217   0.18207265    104487.09     27762291     27866778 0.0080367591 
   56900    250.68469    1.1194822    104613.34     27762370     27866983 0.0080526155 
   57000    250.43134    1.4354394    104507.61     27762677     27867185 0.0080672687 
   57100    251.68467    3.0610721    105030.64     27762366     27867397 0.0080831174 
   57200    251.00183   0.91335397    104745.68     27762808     27867553 0.0080973028 
   57300    251.87821   -1.7303079     105111.4     27762667     27867778 0.0081139299 
   57400    251.45311   0.65001097       104934     27763006     27867940 0.0081296619 
   57500     252.1723   -2.4121629    105234.13     27762931     27868165 0.0081439729 
   57600    252.39473    1.3825462    105326.95     27763066     27868393 0.0081627532 
   57700    253.09133   0.99670186    105617.65     27762973     27868590 0.0081780346 
   57800    254.08713    0.1891194    106033.21     27762739     27868773 0.0081880423 
   57900    253.04906  -0.69344896    105600.01     27763349     27868949 0.0082031473 
   58000    253.87156    0.6454859    105943.25     27763181     27869125 0.0082190789 
   58100    254.67076    -1.080317    106276.76     27763041     27869317 0.0082361231 
   58200    254.58099    1.2072977     106239.3     27763292     27869531 0.0082509145 
   58300    254.99711    1.0437806    106412.95     27763310     27869723 0.0082710506 
   58400    255.58733    -1.656485    106659.26     27763215     27869874 0.0082871938 
   58500    255.16108  -0.33608572    106481.38     27763611     27870093 0.0083041558 
   58600    255.99361     2.211627     106828.8     27763411     27870240 0.0083210483 
   58700    256.21597   -2.9824451     106921.6     27763556     27870478 0.0083366958 
   58800    256.50384   0.92884334    107041.73     27763615     27870657 0.0083488861 
   58900    256.66998  -0.38243193    107111.06     27763692     27870803 0.0083638594 
   59000    257.09362      1.36398    107287.85     27763714     27871002 0.0083824338 
   59100    257.99116  -0.43686234     107662.4     27763537     27871200 0.0083993302 
   59200    257.62409    1.2777701    107509.22     27763880     27871389 0.0084183524 
   59300    258.29046   0.15040824     107787.3     27763841     27871629 0.0084322233 
   59400    257.88779    1.7014002    107619.26     27764210     27871829 0.0084494726 
   59500    258.46102  -0.16879148    107858.48     27764170     27872029  0.008458995 
   59600    258.83717  -0.90726114    108015.45     27764246     27872262 0.0084792018 
   59700    259.00526    3.0898802     108085.6     27764323     27872409 0.0084942614 
   59800    259.44991   -3.1189281    108271.15     27764372     27872643 0.0085063105 
   59900    260.41932    3.2962505     108675.7     27764178     27872853 0.0085201922 
   60000    260.11128   0.66391736    108547.15     27764524     27873071 0.0085339007 
   60100    260.72836    3.1401138    108804.66     27764476     27873281 0.0085468471 
   60200    260.94167  -0.28863557    108893.68     27764591     27873485  0.008559141 
   60300    261.52805  -0.11811082    109138.38     27764487     27873625 0.0085782259 
   60400    261.41713   -1.4263944    109092.09     27764637     27873729 0.0085965228 
   60500    262.36902   -1.8958486    109489.33     27764428     27873917  0.008616992 
   60600    262.36749  -0.15844211    109488.69     27764626     27874115 0.0086267124 
   60700    262.65444   0.95907769    109608.44     27764749     27874357 0.0086406846 
   60800    262.79247  -0.60606407    109666.04     27764913     27874579 0.0086586607 
   60900    263.06552   -2.1119546    109779.98     27765028     27874808 0.0086748104 
   61000     263.6138   0.98056298    110008.79     27764999     27875008 0.0086890879 
   61100    264.23606  -0.11917914    110268.46     27764917     27875185 0.0087030971 
   61200    264.51952   0.01456587    110386.75     27764981     27875367 0.0087186822 
   61300    264.07671     2.909414    110201.97     27765383     27875585 0.0087365898 
   61400    264.77394    1.3006085    110492.93     27765280     27875773 0.0087497525 
   61500    265.34347    2.2718941     110730.6     27765207     27875938 0.0087629052 
   61600    265.34956   -3.2699703    110733.14     27765423     27876156 0.0087749576 
   61700    266.26605    3.0548333     111115.6     27765204     27876319 0.0087902817 
   61800    266.19875   -2.9182563    111087.51     27765405     27876492 0.0088050064 
   61900    266.61274   0.97263535    111260.28     27765405     27876665 0.0088269246 
   62000    266.99798   0.43120331    111421.04     27765474     27876895 0.0088433611 
   62100    267.59626     1.139926    111670.71     27765477     27877148  0.008853002 
   62200    267.33045   -2.6800031    111559.78     27765737     27877297 0.0088627871 
   62300    268.06403   0.31865935    111865.91     27765598     27877464 0.0088804125 
   62400    268.98941    -1.298511    112252.09     27765385     27877637 0.0088922757 
   62500    268.27933    1.2852271    111955.76     27765870     27877826 0.0089039672 
   62600    268.25356   -5.2851563    111945.01     27766062     27878007 0.0089165241 
   62700    268.65647   0.24012817    112113.15     27766047     27878160 0.0089350759 
   62800    269.58552  0.019527015    112500.85     27765896     27878397 0.0089527753 
   62900    269.45032  -0.93894368    112444.43     27766115     27878559 0.0089649789 
   63000      270.059    1.7412446    112698.44     27766065     27878763 0.0089870776 
   63100    270.13983   -1.8150167    112732.17     27766182     27878914 0.0089989984 
   63200    270.91738   0.99717569    113056.65     27766076     27879133  0.009019316 
   63300    271.17426   -2.3601114    113163.85     27766144     27879308 0.0090333812 
   63400    271.39491    4.5567006    113255.93     27766269     27879525 0.0090540102 
   63500    271.15762   -1.9252227     113156.9     27766582     27879739 0.0090672996 
   63600    272.27349  -0.95509206    113622.57     27766314     27879936 0.0090805845 
   63700    272.17132    4.1242362    113579.93     27766524     27880104 0.0090961199 
   63800    272.67769    0.3149621    113791.24     27766504     27880296 0.0091110184 
   63900    273.00194    4.1699628    113926.56     27766488     27880415 0.0091339269 
   64000    273.35375    3.9182832    114073.37     27766584     27880658 0.0091513593 
   64100    274.14181    2.1601324    114402.24     27766454     27880856 0.0091629171 
   64200    273.94198   0.15011626    114318.85     27766700     27881019 0.0091789798 
   64300    275.09893    1.6248711    114801.65     27766383     27881185 0.0091975505 
   64400    274.55335  -0.86475133    114573.97     27766830     27881404 0.0092072859 
   64500     274.4943    1.0612228    114549.33     27767029     27881578 0.0092214951 
   64600     274.7379   -2.1047658    114650.99     27767138     27881789  0.009237599 
   64700    276.04211    1.4128112    115195.25     27766820     27882015  0.009255858 
   64800    275.57098   -2.5238447    114998.64     27767190     27882189 0.0092737277 
   64900    275.41915   0.41092731    114935.28     27767453     27882388  0.009286854 
   65000     277.0002   -1.9723687    115595.07     27766966     27882561 0.0093029286 
   65100    276.61283   0.66006161    115433.42     27767318     27882751 0.0093163761 
   65200    277.35264   -1.4695805    115742.15     27767182     27882925 0.0093316026 
   65300    277.40527    5.0456575    115764.11     27767289     27883053 0.0093449874 
   65400    277.52058  -0.90575978    115812.23     27767497     27883309 0.0093621198 
   65500    278.41521   0.89566934    116185.57     27767266     27883451 0.0093723286 
   65600    278.65414  -0.88667368    116285.28     27767358     27883643 0.0093879276 
   65700    279.11519    4.1983846    116477.68     27767404     27883881 0.0094038379 
   65800    278.33987    3.2821588    116154.13     27767967     27884121 0.0094145123 
   65900    279.83991   -2.2638373    116780.11     27767545     27884325 0.0094307197 
   66000    279.75911   0.18974147    116746.39     27767673     27884419 0.0094508809 
   66100    280.07139   -1.2307731    116876.71     27767728     27884605 0.0094628748 
   66200    279.98498   -1.2940195    116840.65     27767935     27884776 0.0094850323 
   66300    280.83831   -1.2301471    117196.75     27767794     27884990 0.0095063113 
   66400    281.19799   -1.5706293    117346.85     27767797     27885144 0.0095235434 
   66500    281.45459    3.9995466    117453.93     27767824     27885278 0.0095437092 
   66600     281.7057   -4.5649413    117558.72     27767929     27885488 0.0095589493 
   66700    281.65451   -2.2973533    117537.36     27768105     27885643 0.0095732485 
   66800    282.17663     1.820778    117755.25     27768077     27885832   0.00959542 
   66900    281.91083   -2.9774569    117644.33     27768440     27886085  0.009610914 
   67000    282.40417   -1.5290356     117850.2     27768354     27886204 0.0096237769 
   67100    283.15307    3.6264446    118162.73     27768265     27886428 0.0096431248 
   67200    283.07124   -3.5030527    118128.58     27768488     27886617 0.0096599557 
   67300    283.33168    3.5339954    118237.26     27768548     27886785 0.0096730194 
   67400    283.36968  -0.99364505    118253.12     27768770     27887023  0.009692021 
   67500    284.91602    3.1232283    118898.43     27768291     27887190 0.0097070439 
   67600    284.60785  -0.10691107    118769.82     27768620     27887390 0.0097242461 
   67700    284.63712    1.2459729    118782.04     27768746     27887528 0.0097405306 
   67800    285.29079   0.16028381    119054.82     27768729     27887784 0.0097569082 
   67900    285.76578  -0.08661961    119253.04     27768749     27888002 0.0097733117 
   68000    285.83323   -2.7264004    119281.19     27768872     27888153  0.009788794 
   68100    287.58879    4.9636545     120013.8     27768333     27888347  0.009806867 
   68200    286.99705  -0.81313313    119766.86     27768776     27888543 0.0098204033 
   68300    287.80104    1.3118004    120102.37     27768569     27888672 0.0098375174 
   68400    287.40579   -1.0431609    119937.43     27768886     27888824  0.009853401 
   68500    287.60878     2.310393    120022.14     27769021     27889043 0.0098731928 
   68600    288.33269   -1.4873056    120324.24     27768902     27889226 0.0098869033 
   68700    288.34087    3.1300792    120327.65     27769140     27889467 0.0099067281 
   68800    288.70774    2.8858095    120480.75     27769189     27889670 0.0099262747 
   68900    289.26899   -3.7317651    120714.97     27769176     27889891 0.0099442264 
   69000    289.56727    4.0612312    120839.44     27769292     27890131 0.0099582631 
   69100    289.32847  -0.80386662    120739.79     27769552     27890292 0.0099760415 
   69200     289.2789    3.7187207     120719.1     27769813     27890532 0.0099918172 
   69300    289.96931   -5.5562641    121007.22     27769663     27890670  0.010001616 
   69400    290.69226    8.6297593    121308.91     27769538     27890847  0.010020788 
   69500     290.9576   -2.4900495    121419.64     27769624     27891044  0.010030427 
   69600    291.02861    3.6006343    121449.27     27769748     27891197  0.010045277 
   69700    291.25196   0.24199357    121542.48     27769839     27891381  0.010058129 
   69800    292.12993    2.0556561    121908.87     27769636     27891545   0.01007827 
   69900    292.12659   -4.6413207    121907.47     27769792     27891699   0.01009446 
   70000    292.30198     4.764767    121980.66     27769871     27891852  0.010114338 
   70100    292.90127    3.2015976    122230.75     27769786     27892017  0.010125308 
   70200    292.60625  -0.84973476    122107.64     27770108     27892215  0.010146947 
   70300    294.15133    3.5003261    122752.41     27769679     27892431  0.010167562 
   70400    293.46699    1.0334006    122466.83     27770204     27892671  0.010181592 
   70500    294.61009  -0.26663757    122943.86     27769926     27892870   0.01019685 
   70600    294.40452    2.4072306    122858.08     27770200     27893059  0.010213766 
   70700    295.29793   -1.2975687     123230.9     27770058     27893289  0.010226351 
   70800    294.97136   -3.6032919    123094.62     27770418     27893513  0.010237684 
   70900    295.89874   -2.4085429    123481.63     27770232     27893714  0.010255704 
   71000    295.86063  -0.42522322    123465.73     27770432     27893898  0.010272876 
   71100    296.44271    1.4941915    123708.63     27770384     27894093  0.010292933 
   71200    296.47678   -1.6469976    123722.85     27770566     27894289  0.010303055 
   71300    297.06849    1.1812657    123969.78     27770534     27894504  0.010315712 
   71400    296.54227     3.467534    123750.18     27770900     27894650  0.010332498 
   71500    297.25931   -2.2968057    124049.41     27770782     27894832  0.010346358 
   71600    297.59515     1.331395    124189.56     27770825     27895015   0.01035686 
   71700     298.1925    2.4757279    124438.84     27770750     27895189   0.01037902 
   71800    298.48665   -1.4761865    124561.59     27770847     27895408  0.010389047 
   71900    298.51873   -1.2925939    124574.98     27771027     27895602  0.010406033 
   72000    298.73566    1.8712607    124665.51     27771089     27895755  0.010425594 
   72100    298.94291    1.4197605    124751.99     27771174     27895926  0.010442465 
   72200    300.04453    3.7019973    125211.71     27770861     27896072  0.010459361 
   72300     299.8665    5.3110314    125137.42     27771122     27896260  0.010482724 
   72400    300.31707    -1.397079    125325.44     27771095     27896421  0.010497968 
   72500    301.20009    2.5503878    125693.94     27770987     27896681  0.010510257 
   72600    300.77675 -0.017166802    125517.28     27771340     27896857  0.010523879 
   72700    301.80988   0.16657948    125948.41     27771139     27897088   0.01054539 
   72800    301.17093    6.5241025    125681.77     27771635     27897317  0.010558311 
   72900    301.97925   -1.3418302    126019.09     27771486     27897506  0.010573281 
   73000    301.60048    3.5499323    125861.03     27771892     27897754  0.010589927 
   73100    302.51226  -0.68367774    126241.52     27771653     27897895  0.010607739 
   73200    302.56478    3.8118322    126263.44     27771841     27898104  0.010622424 
   73300    303.47779    2.1769188    126644.45     27771612     27898256  0.010643227 
   73400    303.81772  -0.54415179     126786.3     27771599     27898386  0.010658256 
   73500    303.59234   -2.9023905    126692.25     27771952     27898645  0.010671181 
   73600    304.04478    5.2703809    126881.06     27772004     27898885  0.010686573 
   73700    304.91618   -7.6876726     127244.7     27771829     27899073  0.010702266 
   73800    305.18054    3.8958161    127355.02     27771928     27899283  0.010717465 
   73900    305.27615    1.2569515    127394.92     27772104     27899499  0.010731108 
   74000    305.84774    1.6422465    127633.45     27772028     27899661   0.01074497 
   74100    306.79325  -0.63276652    128028.02     27771826     27899854  0.010760196 
   74200    306.21005   -5.0784583    127784.65     27772268     27900053  0.010769976 
   74300    306.36066    2.2294724     127847.5     27772394     27900242  0.010790982 
   74400    306.42717   -3.3805675    127875.25     27772523     27900398   0.01080029 
   74500    307.23159    0.0770185    128210.95     27772444     27900655    0.0108155 
   74600    307.85838    7.4782274    128472.51     27772369     27900842  0.010831673 
   74700    307.98196   0.13351912    128524.08     27772543     27901068  0.010842096 
   74800    307.90239   -3.5141158    128490.88     27772746     27901237  0.010855333 
   74900    308.84189   -1.8770844    128882.94     27772527     27901410  0.010875256 
   75000    309.04887    4.0319351    128969.32     27772626     27901595  0.010891519 
   75100    309.23111   -2.0885586    129045.37     27772713     27901758  0.010902819 
   75200    309.49331     3.985778    129154.79     27772796     27901951  0.010920631 
   75300     309.5293   -5.7558155    129169.81     27772941     27902111  0.010928799 
   75400    310.31723   -3.3220945    129498.62     27772798     27902297  0.010946504 
   75500    310.07042    3.4242557    129395.62     27773068     27902464  0.010959574 
   75600    310.69483   -5.6250413    129656.19     27772986     27902642  0.010969198 
   75700    310.55014   -1.4830216    129595.81     27773198     27902794  0.010985142 
   75800    311.03798     1.365638    129799.39     27773228     27903028  0.011004889 
   75900    311.01485    1.2808827    129789.74     27773429     27903219   0.01101853 
   76000    311.92604    1.1454198    130169.99     27773259     27903429  0.011037542 
   76100     311.9669     1.212242    130187.04     27773450     27903637  0.011055307 
   76200    312.02185   -1.1194251    130209.97     27773571     27903781  0.011066087 
   76300    312.81955   0.80485019    130542.86     27773428     27903971  0.011082047 
   76400    313.70257    1.8479837    130911.35     27773215     27904126  0.011092631 
   76500    313.07768    1.3435878    130650.58     27773718     27904369  0.011108657 
   76600    313.81986   -1.7009472     130960.3     27773583     27904544  0.011126033 
   76700    314.25393   -3.4942955    131141.44     27773591     27904732  0.011145194 
   76800    313.86984    2.1309898    130981.16     27773983     27904964  0.011154607 
   76900    314.80543    0.2291022    131371.59     27773785     27905157  0.011178032 
   77000    315.30533  -0.98037148     131580.2     27773808     27905388  0.011188321 
   77100    314.59907   -1.3094899    131285.47     27774323     27905609   0.01120327 
   77200    315.54439   0.20404167    131679.96     27774115     27905795  0.011213969 
   77300    316.50205   -3.8526297     132079.6     27773918     27905998  0.011233699 
   77400    316.30936    7.0388146     131999.2     27774223     27906222  0.011241188 
   77500    317.10854   -7.2059613     132332.7     27774101     27906434  0.011256064 
   77600    317.16556    8.0161942    132356.49     27774266     27906623   0.01127755 
   77700    317.52246  -0.64860734    132505.43     27774348     27906853  0.011292259 
   77800    318.75409     3.051345    133019.41     27773990     27907010  0.011308493 
   77900    317.76831   0.18417856    132608.03     27774608     27907216  0.011322876 
   78000    318.89931    1.4901031    133080.01     27774317     27907397  0.011343159 
   78100     318.5489   0.27299329    132933.78     27774627     27907560  0.011360006 
   78200    319.46578    3.3313444     133316.4     27774496     27907812  0.011375318 
   78300      319.693   -1.6662621    133411.22     27774605     27908016  0.011394326 
   78400    318.94786  -0.57963701    133100.27     27775140     27908240  0.011405248 
   78500    319.31878    3.4506946    133255.06     27775224     27908479  0.011417531 
   78600    319.98228  -0.99970245    133531.94     27775103     27908635  0.011434602 
   78700    321.14625   -3.2978406    134017.68     27774765     27908782  0.011451958 
   78800    320.73704   -4.2267326    133846.91     27775127     27908974  0.011463767 
   78900    322.17866   -1.2869154    134448.52     27774719     27909167  0.011480476 
   79000    321.63874    4.1082519     134223.2     27775135     27909358  0.011496236 
   79100    321.63384   -6.2152101    134221.16     27775365     27909586  0.011510246 
   79200    322.31019   0.71003327     134503.4     27775238     27909741  0.011527021 
   79300    322.49953    -5.387254    134582.42     27775393     27909976  0.011539228 
   79400    322.73674   0.33295951    134681.41     27775483     27910164  0.011558926 
   79500    322.98671   -1.7170031    134785.72     27775588     27910374  0.011574666 
   79600    323.45995    1.1774858    134983.21     27775590     27910573  0.011590293 
   79700    323.67448  -0.40717583    135072.74     27775689     27910762  0.011608902 
   79800      324.259   -1.1440035    135316.66     27775696     27911013  0.011626642 
   79900    325.14045    5.5330919     135684.5     27775531     27911216  0.011637761 
   80000    325.36821  -0.38754899    135779.55     27775598     27911378  0.011659676 
   80100    325.14395   0.75083332    135685.96     27775913     27911599  0.011671934 
   80200    325.88628   -3.9115456    135995.74     27775760     27911755  0.011685881 
   80300    325.49983   0.94983483    135834.47     27776042     27911877  0.011704222 
   80400    326.39268   -3.5527501    136207.07     27775829     27912036  0.011720946 
   80500    326.70566   0.60256834    136337.68     27775863     27912201  0.011738533 
   80600    326.83724   -2.2810712    136392.59     27776020     27912412  0.011753015 
   80700    326.09627    1.4982602    136083.37     27776489     27912573   0.01176996 
   80800    327.47933     4.560439    136660.54     27776118     27912778     0.011782 
   80900    326.38828   -5.6037446    136205.23     27776783     27912988  0.011799551 
   81000    326.96375     1.341893    136445.38     27776731     27913177   0.01181432 
   81100    327.56136    3.6176961    136694.77     27776680     27913375  0.011827749 
   81200    328.35666    1.5870704    137026.66     27776599     27913625  0.011834303 
   81300    328.81636    1.8933319    137218.49     27776627     27913845  0.011845446 
   81400    330.00726   -1.6088707    137715.47     27776298     27914013  0.011857136 
   81500     329.8741  -0.17361488     137659.9     27776509     27914169  0.011875471 
   81600    329.71569  -0.12179942    137593.79     27776838     27914431  0.011887878 
   81700    330.61078  0.077441309    137967.33     27776659     27914627  0.011899381 
   81800    331.85821   -2.0681158    138487.89     27776386     27914874  0.011911948 
   81900    330.67616   0.40273236    137994.61     27777099     27915093  0.011923891 
   82000     331.1909   0.13250287    138209.42     27777103     27915313  0.011935245 
   82100    332.20606    1.3947213    138633.05     27776884     27915517  0.011946111 
   82200    331.78219   -3.3727256    138456.17     27777339     27915795  0.011958862 
   82300     333.0856   -1.0612779     139000.1     27776984     27915984   0.01197134 
   82400    332.60212   0.31534898    138798.33     27777457     27916256  0.011979246 
   82500    332.41871     1.854796    138721.79     27777815     27916537  0.011991142 
   82600     333.7217   -1.0073919    139265.54     27777435     27916700  0.012006972 
   82700    333.47269     2.346742    139161.63     27777740     27916902  0.012020981 
   82800    334.15831   -8.1494692    139447.75     27777655     27917102  0.012035153 
   82900    334.35911    8.6530989    139531.54     27777716     27917248  0.012061965 
   83000    334.75426    -4.515932    139696.44     27777739     27917435  0.012072854 
   83100    335.14422   0.37816691    139859.18     27777797     27917656  0.012088021 
   83200    336.37469   -3.9784468    140372.67     27777433     27917806  0.012104399 
   83300    335.95332   0.18875391    140196.82     27777826     27918023   0.01212444 
   83400    335.47673   -2.3723212    139997.94     27778179     27918177  0.012138574 
   83500    336.29767    4.1370538    140340.52     27778069     27918410  0.012148189 
   83600    336.74024   -2.2898895    140525.21     27778044     27918569  0.012163235 
   83700    337.09005    2.1955069    140671.19     27778075     27918746  0.012171494 
   83800    336.91611   0.66212593    140598.61     27778306     27918905  0.012188634 
   83900    336.98391   -1.9750744     140626.9     27778398     27919025  0.012195737 
   84000    337.48172  -0.60764981    140834.64     27778382     27919217  0.012209481 
   84100    337.90745     2.393195     141012.3     27778391     27919403  0.012229042 
   84200    338.51677    4.0796273    141266.58     27778377     27919643  0.012240288 
   84300    339.51957   -4.4239427    141685.06     27778157     27919842  0.012249682 
   84400    339.20356     2.322901    141553.18     27778461     27920014  0.012266301 
   84500    339.29157   0.29006076    141589.91     27778692     27920282  0.012276728 
   84600     339.9616   0.47845974    141869.52     27778640     27920510  0.012292286 
   84700    339.78381    4.2991248    141795.33     27778898     27920693  0.012308988 
   84800    340.32225  -0.11230012    142020.02     27778880     27920900  0.012316343 
   84900    340.69649    3.2016997     142176.2     27778906     27921082   0.01232518 
   85000    340.68519   0.23214445    142171.48     27779174     27921346  0.012342785 
   85100    342.84833    9.5975115    143074.18     27778448     27921523  0.012357981 
   85200    341.55363   -7.9569747    142533.89     27779107     27921641  0.012369131 
   85300    343.11017    5.8629939    143183.45     27778657     27921841  0.012385918 
   85400    342.86725   -1.9414468    143082.08     27778949     27922031   0.01240197 
   85500    342.00872    3.3229571     142723.8     27779541     27922265  0.012415041 
   85600    342.81608   0.39134578    143060.72     27779443     27922503  0.012429078 
   85700    342.76993   -4.3893541    143041.47     27779703     27922744  0.012440832 
   85800    342.86312   -3.4863555    143080.36     27779916     27922997  0.012453855 
   85900    343.50921    0.3645363    143349.98     27779833     27923183  0.012464947 
   86000    344.11494   0.61396893    143602.75     27779834     27923437  0.012474694 
   86100    343.94996    5.4263977     143533.9     27780161     27923695  0.012491382 
   86200    344.84733  -0.84430582    143908.39     27779896     27923804  0.012497331 
   86300    345.49716   -1.2075129    144179.57     27779805     27923985  0.012510297 
   86400    345.36943   -3.6995798    144126.27     27780144     27924271  0.012522358 
   86500    346.36078    2.5095447    144539.96     27779900     27924439  0.012532191 
   86600    346.22644   -1.2964153     144483.9     27780220     27924704  0.012541579 
[...]
   88200    350.11074    5.7468625    146104.86     27781653     27927757  0.012747097 
   88300     350.0936     -4.19169    146097.71     27781947     27928045  0.012756105 
   88400    352.10723    2.9448609    146938.02     27781218     27928156  0.012772848 
   88500    352.03285    4.5190244    146906.98     27781528     27928435  0.012783465 
   88600    352.65142   0.47590558    147165.12     27781422     27928587  0.012798007 
   88700    352.22106   0.44451887    146985.52     27781797     27928782  0.012807895 
   88800    353.67727   0.34260858    147593.21     27781380     27928973  0.012828653 
   88900    353.89724    -5.583452    147685.01     27781527     27929212  0.012846256 
   89000    353.50939    1.5240054    147523.15     27781872     27929395  0.012854587 
   89100    354.53049   -1.6650366    147949.27     27781567     27929516  0.012872617 
   89200    355.40809     3.473531     148315.5     27781399     27929715  0.012892044 
   89300    354.44617   -1.6559261    147914.08     27782103     27930017  0.012905266 
   89400    356.38444    3.7244732    148722.94     27781559     27930282  0.012909323 
   89500    355.20422   -2.0793266    148230.43     27782214     27930445  0.012918182 
   89600    355.73029     2.435515    148449.96     27782284     27930734  0.012928061 
   89700    356.67331  0.093492272    148843.49     27782045     27930889  0.012947368 
   89800    356.78829   -1.2433161    148891.48     27782195     27931086  0.012966968 
   89900    356.66594   0.85021982    148840.41     27782374     27931214  0.012977036 
   90000    357.48957  -0.62767462    149184.13     27782270     27931454  0.012991547 
   90100    357.87722   -2.2866735    149345.89     27782356     27931702   0.01299803 
   90200    358.42132    1.7841467    149572.96     27782384     27931957  0.013012881 
   90300    358.30283   -1.6322547    149523.51     27782661     27932184  0.013019472 
   90400    357.95257   -0.6540563    149377.34     27783053     27932430  0.013025493 
   90500    358.92207      2.25032    149781.92     27782876     27932658  0.013039878 
   90600    359.13499     4.038366    149870.77     27783003     27932874  0.013045171 
   90700    359.48629  -0.65947168    150017.38     27783004     27933021  0.013061357 
   90800      359.867     4.554595    150176.25     27783030     27933206  0.013077514 
   90900     360.0552   -1.6003259    150254.79     27783136     27933390  0.013090177 
   91000    360.19976     2.960151    150315.11     27783299     27933614  0.013104922 
   91100    359.73483   -4.1900613     150121.1     27783698     27933819  0.013116348 
   91200    361.68966    2.7197048    150936.87     27783113     27934049  0.013130015 
   91300    361.36774   -4.1724762    150802.52     27783486     27934289  0.013137697 
   91400    361.90244     3.535513    151025.66     27783426     27934452  0.013152899 
   91500     361.8982 -0.014905596    151023.89     27783619     27934643  0.013165454 
   91600    361.69374   -1.7970837    150938.57     27783970     27934909  0.013175558 
   91700    362.01685   -1.3623464    151073.41     27784028     27935101    0.0131812 
   91800     362.8475    6.9935985    151420.04     27783967     27935387  0.013201395 
   91900    363.76557    8.3624149    151803.17     27783773     27935576  0.013205267 
   92000    362.94451  -0.72689052    151460.53     27784325     27935786  0.013211512 
   92100     364.0389   -1.2489746    151917.23     27784154     27936071  0.013222974 
   92200    364.57431    1.9216572    152140.66     27784134     27936274  0.013235657 
   92300    364.84606    -3.706409    152254.06     27784279     27936533  0.013247061 
   92400    364.50146   0.59472182    152110.26     27784634     27936745  0.013258478 
   92500    365.34492    2.8660711    152462.24     27784562     27937024  0.013272435 
   92600    366.25977    5.4181532    152844.02     27784405     27937249  0.013286216 
   92700    366.46738   -2.2089009    152930.66     27784526     27937457  0.013296048 
   92800    366.54838     7.241777    152964.46     27784649     27937614  0.013315682 
   92900    366.31715    1.0815986    152867.96     27784909     27937777  0.013336768 
   93000    366.03284    6.8083802    152749.32     27785277     27938027  0.013344549 
   93100    367.03383   -1.6320395    153167.04     27785103     27938270  0.013352205 
   93200    367.68892   -1.5472066    153440.42     27785013     27938454  0.013363771 
   93300    368.04525   -2.7313612    153589.12     27785054     27938643   0.01338826 
   93400    367.28067     2.405959    153270.05     27785574     27938844  0.013394467 
   93500    368.43486   -2.4264101    153751.71     27785301     27939053   0.01340171 
   93600    368.24839    11.097242    153673.89     27785610     27939284  0.013408903 
   93700    369.29717     1.692162    154111.56     27785454     27939566  0.013424668 
   93800     369.2834    2.1899028    154105.81     27785612     27939717  0.013426318 
   93900    369.19925   -3.0182037     154070.7     27785890     27939960  0.013436725 
   94000    370.78696    3.5219694    154733.26     27785361     27940094   0.01345145 
   94100    370.29412   0.83604585     154527.6     27785738     27940265  0.013466831 
   94200    369.59376    4.9949612    154235.33     27786336     27940571   0.01347204 
   94300    371.54261   -7.2308975    155048.61     27785737     27940786  0.013486458 
   94400    371.39746    5.2127592    154988.03     27786027     27941015   0.01349086 
   94500    372.19745   -4.7392726    155321.88     27785902     27941224  0.013497799 
   94600    371.69664 -0.038273974    155112.88     27786291     27941404  0.013512461 
   94700    372.30584    4.4567251    155367.11     27786234     27941601  0.013528166 
   94800    373.61948    1.7496256    155915.31     27785890     27941805  0.013533293 
   94900    372.34072   -4.3087466    155381.66     27786697     27942078   0.01354286 
   95000    373.14739    6.7586746     155718.3     27786517     27942235  0.013555198 
   95100    373.52639    5.0100258    155876.46     27786565     27942441  0.013566463 
   95200    373.26194    2.2453834     155766.1     27786849     27942615   0.01358319 
   95300     374.1998    3.9099683    156157.48     27786662     27942819  0.013591812 
   95400    374.30445    1.7583434    156201.15     27786903     27943104  0.013593329 
   95500     374.9677    5.0119636    156477.93     27786849     27943327  0.013601866 
   95600    374.85837    3.0022149    156432.31     27787088     27943520  0.013609115 
   95700    375.30344   0.38598034    156618.04     27787133     27943751   0.01362455 
   95800    375.79266  -0.65897548     156822.2     27787111     27943933  0.013642529 
   95900     375.9622  -0.22906824    156892.94     27787259     27944152  0.013655624 
   96000    376.05749   -5.3146382    156932.71     27787494     27944426   0.01366965 
   96100    376.88382    2.3721186    157277.55     27787407     27944684  0.013675768 
   96200    377.98411   0.82606029    157736.71     27787116     27944853  0.013693522 
   96300    378.32771    1.4429086     157880.1     27787246     27945126  0.013701862 
   96400     377.6355   -1.8316933    157591.23     27787717     27945309  0.013712587 
   96500    378.58059   -6.0769825    157985.63     27787534     27945520  0.013720127 
   96600     377.9775    4.7569763    157733.95     27788062     27945796  0.013736206 
   96700     379.0184    1.5742958    158168.33     27787910     27946079  0.013745981 
   96800    379.74117    2.7097336    158469.95     27787814     27946284  0.013750391 
   96900    379.40455    1.5830541    158329.48     27788149     27946478  0.013760139 
   97000    379.28418    4.4299361    158279.24     27788500     27946779  0.013760348 
   97100    381.75575   0.26004465    159310.66     27787615     27946926   0.01377685 
   97200    380.35082     1.541805    158724.36     27788425     27947150  0.013783396 
   97300    381.43673   -4.5814072    159177.53     27788161     27947339  0.013792435 
   97400    381.42023  -0.24328868    159170.64     27788346     27947517  0.013803767 
   97500    381.21647    2.5763081    159085.61     27788712     27947798  0.013808439 
   97600    382.69875    5.5573262    159704.18     27788259     27947963  0.013820619 
   97700    382.39814   -4.9512565    159578.73     27788589     27948168  0.013823465 
   97800    383.01555   0.76932676    159836.38     27788576     27948412  0.013838555 
   97900    382.76037   -1.5255459    159729.89     27788904     27948634  0.013840894 
   98000    383.33298    5.4359384    159968.85     27788985     27948954  0.013852323 
   98100    383.10304   -5.8129658    159872.89     27789295     27949167   0.01385955 
   98200    384.41752    6.8048103    160421.44     27788851     27949272  0.013874578 
   98300    383.70243   -3.6227905    160123.02     27789360     27949483  0.013884247 
   98400    385.03043    5.9865113    160677.21     27788977     27949654  0.013905762 
   98500    385.28798   -3.3438468    160784.69     27789128     27949913  0.013917203 
   98600     384.7422   -2.2033554    160556.93     27789591     27950148  0.013931802 
   98700    384.90356    2.3140879    160624.27     27789696     27950320  0.013947564 
   98800    385.48214   -5.5053516    160865.71     27789667     27950533     0.013953 
   98900    385.88045    3.6532817    161031.94     27789763     27950795  0.013967346 
   99000    386.36947    1.3005154    161236.01     27789736     27950972  0.013980633 
   99100    385.52594   -5.3603699    160883.99     27790308     27951192   0.01397434 
   99200    387.32327   -6.9257017    161634.04     27789762     27951396  0.013979949 
   99300    387.97166    -1.397703    161904.62     27789662     27951567  0.013994176 
   99400    387.96409    3.4610968    161901.46     27789878     27951780   0.01400994 
   99500    388.97474    1.4525162    162323.21     27789633     27951956  0.014013237 
   99600    388.89279   -5.7778305    162289.01     27789944     27952233  0.014018543 
   99700    387.43048   -3.6343297    161678.78     27790801     27952480  0.014029097 
   99800    388.42354    4.3171902    162093.19     27790578     27952671  0.014045009 
   99900    389.20158  -0.42868641    162417.88     27790533     27952951   0.01405467 
  100000    388.86448    1.1916813     162277.2     27790956     27953233  0.014065645 
  100100    390.21971  -0.17668707    162842.75     27790582     27953425  0.014072283 
  100200    389.87324     2.298916    162698.17     27790937     27953636  0.014084463 
  100300    390.47236    1.6394329    162948.19     27790924     27953872  0.014095675 
  100400    391.21469   -1.6449839    163257.97     27790873     27954131  0.014104798 
  100500    390.41273   -2.8761877     162923.3     27791397     27954320  0.014118885 
  100600    390.98045    -4.579361    163160.22     27791352     27954512  0.014129151 
  100700    392.60469   0.73720232    163838.03     27790885     27954723  0.014135178 
  100800     391.4218   -4.9236369     163344.4     27791536     27954880  0.014150955 
  100900    392.38641   -1.9974996    163746.94     27791326     27955073  0.014153866 
  101000    392.61907   -1.6992951    163844.03     27791450     27955294  0.014165289 
  101100    393.08217 -0.0067890835    164037.29     27791430     27955468  0.014178603 
  101200    393.28242   -2.5492798    164120.85     27791526     27955647  0.014195616 
  101300    392.73027   -6.8694518    163890.44     27791930     27955820  0.014211861 
  101400     393.8727    2.0570882    164367.19     27791693     27956061  0.014224119 
  101500    394.56882    2.0545205    164657.68     27791591     27956249  0.014238008 
  101600    393.89233    2.3434493    164375.38     27792029     27956404  0.014247475 
  101700    395.58712    9.0262535    165082.63     27791456     27956539  0.014266413 
  101800    395.86947    2.5273727    165200.46     27791538     27956738   0.01427247 
  101900    396.01247   0.89105595    165260.13     27791667     27956927  0.014293951 
  102000    395.21917   -4.2701962    164929.08     27792162     27957091  0.014305673 
  102100    396.70308    3.0336083    165548.33     27791739     27957288  0.014321542 
  102200     397.1796   -3.4543474    165747.19     27791716     27957463    0.0143379 
  102300    398.43199    1.9628169    166269.82     27791421     27957691  0.014354047 
  102400    397.00153    2.2512823    165672.88     27792203     27957876  0.014367769 
  102500    397.68509   -1.1513755    165958.13     27792142     27958100  0.014377635 
  102600    398.33877   -2.7096937    166230.92     27792086     27958316  0.014383412 
  102700    398.35732    5.7487595    166238.66     27792288     27958527  0.014402535 
  102800    399.13468    2.5766534    166563.06     27792154     27958717  0.014412167 
  102900    398.81739   0.30823043    166430.66     27792505     27958935  0.014428172 
  103000    399.96911   -4.1060425    166911.28     27792273     27959184   0.01444176 
  103100    399.19924   0.71582839       166590     27792876     27959466  0.014446675 
  103200    400.35804     2.554919    167073.59     27792645     27959718  0.014449926 
  103300    400.40446    3.4801431    167092.96     27792787     27959880  0.014467233 
  103400    401.09578   -2.4738063    167381.45     27792677     27960058  0.014485184 
  103500    400.64122   0.94124568    167191.76     27793080     27960271  0.014497101 
  103600    402.19386   -2.1506809    167839.69     27792572     27960411  0.014517514 
  103700    401.89488    -1.498826    167714.92     27792966     27960681  0.014524051 
  103800     401.1125    6.2296191    167388.43     27793562     27960950  0.014534232 
  103900    402.18274    1.9950183    167835.05     27793435     27961270  0.014538371 
  104000     401.2192   -1.2865871    167432.96     27793997     27961430  0.014555712 
  104100    402.86753    2.1841858    168120.82     27793367     27961488  0.014582093 
  104200    403.46599   -1.1960911    168370.57     27793256     27961626  0.014588483 
  104300    403.14202    4.6324522    168235.37     27793666     27961902   0.01459389 
  104400    403.88822   -2.8514927    168546.76     27793502     27962049  0.014607809 
  104500    403.49463   -3.6711821    168382.52     27793872     27962255  0.014621928 
  104600    403.77931 -0.025440108    168501.32     27793995     27962496  0.014642456 
  104700    404.39035   -4.0974339    168756.31     27793976     27962732   0.01464712 
  104800    404.79966   -2.9830537    168927.12     27793958     27962885  0.014668754 
  104900     406.0298    2.5799234    169440.47     27793649     27963089  0.014682323 
  105000    405.11622   0.37089911    169059.22     27794343     27963402  0.014691713 
  105100    406.19507    -0.674483    169509.44     27794078     27963588  0.014698814 
  105200    405.56311     -12.5355    169245.71     27794543     27963789  0.014712457 
  105300    406.95749    5.7570592     169827.6     27794173     27964001  0.014727811 
  105400    407.09114    3.0425625    169883.38     27794340     27964224  0.014739327 
  105500    406.01186   0.39966429    169432.98     27795108     27964541  0.014755381 
  105600    407.80413    1.9209979    170180.92     27794563     27964743  0.014763826 
  105700    407.97545    2.5247322    170252.41     27794729     27964982  0.014774708 
  105800     408.5228   -1.2729814    170480.82     27794701     27965182  0.014775042 
  105900    408.42562    6.7996211    170440.27     27794919     27965359  0.014793135 
  106000    409.47197  -0.41324864    170876.92     27794638     27965515  0.014805908 
  106100    409.38524   -4.4431267    170840.73     27794946     27965787  0.014818845 
  106200    409.68898  -0.14211699    170967.48     27795049     27966017  0.014823349 
  106300    409.02509   -1.3350189    170690.43     27795522     27966213  0.014839523 
  106400    410.03141   -2.1132705    171110.38     27795323     27966433  0.014854297 
  106500    410.11888  -0.81504935    171146.89     27795512     27966659  0.014859491 
  106600    410.67662     3.599559    171379.63     27795444     27966824  0.014871912 
  106700    411.16069    6.8381711    171581.64     27795427     27967009   0.01489191 
  106800    412.55305   -1.1255208    172162.69     27795037     27967199  0.014905358 
  106900    411.80906    2.1672978    171852.21     27795582     27967435  0.014921339 
  107000     413.0445   -4.0058091    172367.77     27795266     27967634  0.014931619 
  107100    411.59363   -2.4168181    171762.31     27796126     27967889  0.014943623 
  107200    413.86995    5.2966286    172712.24     27795434     27968146  0.014950699 
  107300    411.89234    3.5914405    171886.97     27796459     27968346  0.014957396 
  107400    413.22296    4.2786338    172442.25     27796098     27968540  0.014976595 
  107500    413.28285    4.7101691    172467.24     27796308     27968776  0.014982829 
  107600    414.06076    -2.726029    172791.87     27796226     27969018  0.014981821 
  107700    413.73997    3.7012003       172658     27796487     27969145  0.015005674 
  107800    413.54646  -0.36452314    172577.25     27796775     27969352   0.01501228 
  107900    415.51134   -2.4600781    173397.21     27796275     27969672  0.015017332 
  108000    415.74894   0.54877233    173496.37     27796324     27969821  0.015019814 
  108100     416.3844   -3.9833123    173761.55     27796174     27969935  0.015040299 
  108200     415.1772    6.6184172    173257.77     27796991     27970249  0.015061159 
  108300    416.01543   0.66292166    173607.58     27796877     27970484  0.015068266 
  108400    416.84643   -7.9672402    173954.36     27796755     27970710  0.015080122 
  108500    417.05955     5.061995     174043.3     27796894     27970937   0.01508688 
  108600    417.47774    4.7539034    174217.81     27796937     27971155  0.015097786 
  108700    417.06085   -3.0123544    174043.84     27797311     27971355  0.015110806 
  108800     418.3897   -1.1832468    174598.39     27796960     27971558  0.015132927 
  108900    418.29148   -3.1223514     174557.4     27797144     27971702  0.015139846 
  109000    418.04019   -3.0623858    174452.53     27797478     27971930   0.01515809 
  109100    418.88222   0.10728934    174803.92     27797351     27972155  0.015175542 
  109200    419.50589    10.820415    175064.18     27797297     27972361  0.015192563 
  109300    419.49894   -0.2396917    175061.28     27797550     27972611  0.015197344 
  109400    419.68281    1.5129688    175138.01     27797695     27972833  0.015209061 
  109500    419.94677   -4.5391395    175248.17     27797734     27972982  0.015221469 
  109600    420.57602    3.9067269    175510.76     27797641     27973152  0.015237285 
  109700     420.9253   0.26231202    175656.52     27797688     27973344  0.015250099 
  109800     421.2733    3.2013403    175801.74     27797723     27973525  0.015268343 
  109900     421.3368  -0.83843891    175828.24     27797839     27973667  0.015281992 
  110000    421.49316   -3.3065551    175893.49     27797954     27973847   0.01529345 
Loop time of 5956.9 on 8 procs for 100000 steps with 140000 atoms

Pair  time (%) = 3554.65 (59.6728)
Bond  time (%) = 652.976 (10.9617)
Kspce time (%) = 1130.45 (18.9771)
Neigh time (%) = 36.7185 (0.616402)
Comm  time (%) = 180.271 (3.02626)
Outpt time (%) = 57.4884 (0.965071)
Other time (%) = 344.349 (5.78067)

Nlocal:    17500 ave 19831 max 14082 min
Histogram: 1 0 0 0 0 5 0 0 0 2
Nghost:    10514.2 ave 12498 max 9085 min
Histogram: 1 0 2 1 2 0 1 0 0 1
Neighs:    1.58328e+06 ave 2.05685e+06 max 1.21930e+06 min
Histogram: 1 0 1 3 1 0 0 0 1 1

Total # of neighbors = 12666276
Ave neighs/atom = 90.4734
Ave special neighs/atom = 11.0429
Neighbor list builds = 528
Dangerous builds = 0
