ITEM: TIMESTEP
0
ITEM: NUMBER OF ATOMS
140
ITEM: BOX BOUNDS pp pp pp
-120.23 109.574
-104.091 109.748
-102.517 103.397
ITEM: ATOMS id type mol xs ys zs vx vy vz 
107 9 1 0.443623 0.473906 0.489763 0.00194722 -0.0143885 0.00397282 
135 10 1 0.433599 0.471897 0.483068 -0.00411613 -0.000318515 0.00263851 
138 9 1 0.435537 0.472042 0.478134 0.0143655 -0.0119092 0.0127831 
139 9 1 0.42879 0.471614 0.482627 0.0129014 0.00306029 -0.00356339 
140 9 1 0.435154 0.467642 0.48564 -0.0151129 -0.010993 -0.00763757 
63 7 1 0.498109 0.466201 0.496367 -0.00302009 0.000722838 0.00374927 
66 7 1 0.49453 0.462262 0.491587 -0.0013275 -9.58984e-05 0.00315943 
67 9 1 0.495154 0.469526 0.498897 -0.00603916 0.00302676 0.00396298 
69 10 1 0.48975 0.458627 0.495084 -0.00337545 0.00276569 -0.00205912 
70 9 1 0.497435 0.458893 0.489054 -0.0107155 -0.000311426 -0.00450295 
71 9 1 0.492473 0.465356 0.487902 -0.00529453 -0.0149009 -0.0105173 
72 9 1 0.491677 0.455402 0.498727 -0.000314304 -0.0126902 -0.00850901 
73 9 1 0.487242 0.455828 0.491508 -0.00667443 -0.013219 -0.0120637 
74 9 1 0.486726 0.461897 0.497571 -0.00448356 0.00338061 -0.0139339 
51 8 1 0.506381 0.474567 0.49704 0.000361255 -0.00104296 -0.00330924 
54 7 1 0.502821 0.469965 0.49275 -0.00286559 -0.00388214 0.00165811 
59 9 1 0.514712 0.469513 0.497858 0.0133077 0.00952253 -0.000304576 
64 9 1 0.505801 0.466887 0.489944 0.010796 -0.00493958 0.00905159 
65 9 1 0.500312 0.472819 0.489198 -0.00665596 0.011682 -0.00323999 
96 7 1 0.451288 0.489118 0.498623 0.000505342 0.00323146 0.00398947 
97 7 1 0.449971 0.48433 0.493266 -0.00399536 -0.0019131 -0.00384104 
98 9 1 0.449364 0.493719 0.497328 0.013133 -0.00833063 0.000587335 
100 7 1 0.443377 0.483678 0.492327 -0.00193581 -0.00290357 -0.00452433 
101 9 1 0.451821 0.479743 0.49476 0.00043278 0.0106804 0.0103115 
102 9 1 0.452004 0.485783 0.4886 0.00613814 -0.0153116 0.00381352 
103 7 1 0.441862 0.478318 0.487682 0.00147443 0.00305643 0.00369337 
104 9 1 0.441578 0.488169 0.490478 0.00425333 0.00363242 -0.00158604 
105 9 1 0.441337 0.482627 0.497103 -0.00183212 -0.0126619 -0.0100505 
106 7 1 0.435242 0.477717 0.486938 0.00262897 0.00378263 0.00228289 
108 9 1 0.443881 0.479101 0.482839 -0.0152665 0.00899014 -0.000691067 
136 9 1 0.433502 0.481952 0.484475 0.00958317 0.0119151 0.0110033 
137 9 1 0.433183 0.477327 0.491807 -0.0123431 -0.00548583 -0.00211745 
81 5 1 0.4977 0.487159 0.496761 -0.0020901 0.00129812 0.00167875 
82 3 1 0.48593 0.489252 0.499179 0.00057737 0.000509978 0.00176464 
84 3 1 0.474932 0.48912 0.498945 0.00300074 0.00179156 -0.0038668 
85 3 1 0.477457 0.485357 0.494148 0.0031204 -1.95986e-05 -0.00130073 
86 3 1 0.483649 0.485431 0.49428 0.00373246 0.0014488 -0.00154784 
87 6 1 0.474974 0.482655 0.490677 -0.0144696 0.0137069 -0.0155105 
88 6 1 0.486304 0.482782 0.490923 0.00058718 0.00392413 0.0147964 
93 3 1 0.457671 0.490029 0.499878 -0.0033378 0.0012346 0.00158698 
95 5 1 0.463263 0.486812 0.495984 0.000841151 -0.000316452 -8.23357e-05 
1 1 1 0.511997 0.484622 0.496142 -0.00389889 0.00285366 -0.00331995 
2 2 1 0.517926 0.485384 0.496365 0.00421968 0.000381512 0.00267829 
5 3 1 0.509545 0.489201 0.499949 -0.00183296 -0.00230834 -0.00103059 
6 4 1 0.521357 0.481994 0.493573 0.00285052 0.00221253 -0.000638388 
11 3 1 0.532822 0.488999 0.497282 -0.00135723 -0.00335148 0.0044516 
13 3 1 0.538989 0.488731 0.497791 0.00226974 -0.00407007 -0.0042004 
14 6 1 0.530534 0.486537 0.493529 0.0100858 -0.0120871 0.00508438 
16 6 1 0.541686 0.486042 0.494511 0.0128031 -0.000642476 0.0158029 
33 9 1 0.520391 0.507644 0.498437 0.0153397 -0.0108511 -0.00392583 
34 9 1 0.524991 0.514086 0.497311 -0.0147128 -0.012271 -0.00748206 
46 9 1 0.528838 0.522566 0.49982 -0.00962117 -0.0103508 -0.00209067 
50 7 1 0.509106 0.479585 0.492483 0.00368634 -0.00167499 -0.000389805 
52 9 1 0.512293 0.477144 0.489303 -0.00597339 -0.00213084 0.00309112 
53 9 1 0.505881 0.481723 0.489148 0.0151553 -0.000830765 -0.00762573 
22 6 1 0.564846 0.485024 0.496707 -0.00996385 0.00487969 -0.0115895 
23 6 1 0.576096 0.484483 0.498052 0.0001083 0.0144944 -0.0121546 
120 7 1 0.586537 0.492023 0.497662 0.000173173 -0.000195677 -0.000936344 
124 9 1 0.582597 0.492438 0.494568 -0.00981824 0.00892955 -0.00363456 
125 9 1 0.587552 0.486988 0.498414 -0.00559664 -0.0159007 0.00308287 
130 9 1 0.590202 0.493537 0.484034 0.00783799 -0.00194746 0.00757024 
123 7 1 0.591849 0.494966 0.494345 -0.00369452 -0.00107379 0.00238004 
126 7 1 0.593222 0.491783 0.487846 0.00119267 0.00127526 -0.00447522 
127 9 1 0.595574 0.494227 0.497701 -0.00603777 -0.00533251 0.00463696 
128 9 1 0.591304 0.500093 0.493599 0.0102891 0.0105769 0.0150833 
129 10 1 0.599568 0.492869 0.485953 -0.00108649 -0.00303579 -0.00244053 
131 9 1 0.592663 0.48664 0.488268 0.00342375 -0.0101821 0.00792734 
132 9 1 0.60059 0.497926 0.485597 0.00839442 -0.00998704 -0.0126802 
133 9 1 0.60051 0.490548 0.48125 0.00843811 -0.00538538 0.00452962 
134 9 1 0.602428 0.490715 0.489703 0.0147141 0.00909052 0.00484502 
48 9 1 0.534269 0.532358 0.499028 -0.000835237 -0.010876 -0.0098167 
49 9 1 0.538851 0.525829 0.496857 0.00288144 0.0130772 -0.00168716 
68 9 1 0.499946 0.463015 0.500014 0.00975381 -0.00731548 -0.0079109 
55 7 1 0.511369 0.471576 0.501123 -0.00311417 0.000389122 0.001904 
57 10 1 0.509649 0.466635 0.506099 0.00281539 0.00257382 -0.000479146 
58 9 1 0.51347 0.475387 0.503944 -0.0108944 0.00694353 -0.00412239 
60 9 1 0.513517 0.465437 0.509084 -0.00801347 0.00910032 0.0108529 
61 9 1 0.508339 0.462237 0.503699 -0.000738964 -0.0109909 -0.00506153 
62 9 1 0.50618 0.468425 0.509363 -0.00169836 0.0143927 -0.00793159 
99 9 1 0.449258 0.487456 0.503211 0.00636143 -0.00656773 -0.00506187 
77 3 1 0.494388 0.494039 0.505559 -0.00381066 -0.00449997 0.00440098 
79 3 1 0.492109 0.490295 0.50063 0.00280236 0.00420529 0.000918355 
80 6 1 0.491737 0.49668 0.508925 -0.000148116 -0.0117006 -0.00222858 
83 5 1 0.48033 0.492356 0.503108 0.0026365 0.00171397 -0.00228318 
89 3 1 0.468686 0.490067 0.500099 -0.000846536 0.00398487 0.000418319 
90 3 1 0.466187 0.493898 0.50485 -0.00277862 -0.00363502 0.000322789 
91 3 1 0.46 0.493882 0.504715 0.000195233 0.0028934 0.00271368 
92 6 1 0.468686 0.496623 0.50829 -0.00766851 0.000417311 -0.00393135 
94 6 1 0.457359 0.49658 0.508044 -0.013157 -0.00911535 0.0108192 
3 3 1 0.519341 0.490372 0.500271 0.000602343 -0.0025854 0.00260861 
4 3 1 0.51402 0.492801 0.502595 -0.00313088 -0.00468576 -0.00229313 
7 2 1 0.515453 0.497787 0.50649 0.00411149 0.00197833 0.00082398 
8 3 1 0.523818 0.493925 0.502948 0.00416376 -0.00197061 0.00393523 
9 1 1 0.521381 0.498541 0.506732 0.00335754 -0.000864375 -0.000189788 
10 3 1 0.530177 0.492782 0.502021 0.00250801 0.00215442 0.000555127 
12 5 1 0.535565 0.495533 0.506598 -0.00226134 -0.00183118 -0.000351739 
15 3 1 0.541185 0.492259 0.502933 0.00315858 -0.00164199 0.00286333 
24 4 1 0.512027 0.50118 0.509304 -0.00215267 -0.00137865 0.0024753 
25 7 1 0.524299 0.503568 0.510376 0.00368592 0.00060579 0.0035421 
26 8 1 0.527208 0.50844 0.505784 -0.00416189 0.00262567 -0.00223348 
27 9 1 0.527454 0.501448 0.513803 -0.00505681 0.0142986 -0.00248109 
28 9 1 0.521124 0.506082 0.51349 -0.0053769 -0.00327792 0.0152957 
29 7 1 0.522698 0.511412 0.501112 0.00364181 0.0036654 -0.00085594 
30 7 1 0.530798 0.513096 0.51 -0.00267624 -0.00180009 0.00209675 
31 9 1 0.530339 0.50595 0.502629 -0.00932771 0.00387377 -0.00657124 
32 10 1 0.518159 0.515603 0.504386 0.00242387 0.00366827 0.00128449 
35 9 1 0.515509 0.51296 0.507939 -0.00731629 -0.0131588 0.015889 
36 9 1 0.515173 0.517499 0.500633 -0.0113426 -0.00530838 -0.00234835 
37 9 1 0.520253 0.519599 0.506892 0.00446857 0.00417793 -0.00293636 
38 7 1 0.534875 0.517732 0.506481 -0.00283215 -0.00254405 -0.00113758 
39 9 1 0.533775 0.510095 0.512913 -0.0095388 0.00967527 -0.00327044 
40 9 1 0.528004 0.515643 0.513524 -0.00939858 -0.0133013 0.000437421 
41 7 1 0.531944 0.523631 0.503728 -0.00173587 0.00265161 0.00158841 
42 9 1 0.537436 0.515232 0.502707 0.00600759 0.0114285 -0.012355 
43 9 1 0.537987 0.519447 0.510222 -0.0140534 -0.0031283 -0.00834652 
56 9 1 0.503316 0.476903 0.500394 0.00810258 0.0030722 0.00612261 
75 3 1 0.503171 0.490222 0.501014 0.00159631 0.00183173 0.000181956 
76 3 1 0.500574 0.494017 0.505775 0.0046643 0.000355457 -0.00321367 
78 6 1 0.502905 0.496632 0.509375 4.84224e-05 -0.00827263 -0.00835327 
17 5 1 0.569633 0.493877 0.510063 0.000412089 0.000998734 -0.000393064 
18 3 1 0.564462 0.491156 0.505237 -0.00187588 0.00243861 -0.00261628 
19 3 1 0.57537 0.490686 0.506516 -0.00081773 0.000969546 -0.00445743 
20 3 1 0.567172 0.48746 0.500513 0.00334213 0.00394031 -0.00391132 
21 3 1 0.573325 0.487189 0.501233 -0.000728918 -0.004608 -0.000649214 
109 3 1 0.5473 0.492944 0.504814 0.000379299 -0.00108731 -0.00424718 
110 3 1 0.549446 0.496489 0.510001 -0.00184153 0.000766602 0.00396296 
111 3 1 0.555597 0.496185 0.510613 0.000870067 0.00233386 0.00151503 
112 6 1 0.546723 0.499192 0.513241 0.000816339 -0.0154972 -0.00574844 
113 3 1 0.558224 0.49241 0.505899 0.00096847 0.0016828 -0.00276878 
114 6 1 0.557983 0.498638 0.51436 0.00176511 0.00261788 -0.014627 
115 5 1 0.552965 0.489625 0.501212 0.000524012 -0.00261948 3.41239e-05 
116 7 1 0.581503 0.491339 0.508847 -0.000343138 -0.000918986 0.0029762 
117 7 1 0.585528 0.495057 0.504322 -0.00185712 -0.00387733 -0.000247979 
118 9 1 0.583331 0.48661 0.509782 0.0109925 -0.00215331 0.00630142 
119 9 1 0.581423 0.493889 0.513549 4.5936e-05 0.0133964 0.00100227 
121 9 1 0.589764 0.495306 0.50692 -0.010546 -0.00713782 -0.00445002 
122 9 1 0.583903 0.499916 0.503664 -0.00406577 0.013185 0.000920304 
44 10 1 0.536468 0.528104 0.500913 -0.00109547 0.00236 -0.000256718 
45 9 1 0.529573 0.526076 0.50769 0.0116907 -0.00707836 0.0111884 
47 9 1 0.539628 0.529538 0.504715 -0.0114883 -0.0117548 0.00647505 
ITEM: TIMESTEP
200
ITEM: NUMBER OF ATOMS
140
ITEM: BOX BOUNDS pp pp pp
-120.23 109.574
-104.091 109.748
-102.517 103.397
ITEM: ATOMS id type mol xs ys zs vx vy vz 
107 9 1 0.439731 0.473194 0.489434 -0.0108958 0.00508556 -0.00282235 
135 10 1 0.431045 0.4683 0.480645 -0.00138339 -0.00224958 -0.00163938 
138 9 1 0.434035 0.468468 0.476203 0.00182075 0.00295802 -0.00462376 
139 9 1 0.426353 0.46727 0.478994 -0.00669411 -0.00424335 -0.00260754 
140 9 1 0.432576 0.464537 0.484203 0.00370583 -0.00165132 0.00131265 
63 7 1 0.496723 0.464757 0.495701 -0.00186334 -0.00154442 -0.00108926 
66 7 1 0.49235 0.460147 0.491213 0.000788873 -0.0011491 -0.0015556 
67 9 1 0.493996 0.469082 0.496974 0.00346276 -0.00835948 0.000549509 
69 10 1 0.486932 0.456915 0.495465 0.00144385 0.000800965 6.58383e-06 
70 9 1 0.495231 0.456268 0.489137 -0.00157024 0.00601204 0.0011707 
71 9 1 0.490506 0.46318 0.487123 0.0068057 0.00245439 0.00666858 
72 9 1 0.48884 0.453735 0.499424 0.000245762 -0.00264425 0.00595127 
73 9 1 0.484123 0.454109 0.49191 -0.000525581 0.00104048 -0.00384857 
74 9 1 0.484204 0.460798 0.497869 0.000804975 0.01025 0.000711379 
51 8 1 0.506668 0.472438 0.496782 0.000793502 -0.000151869 0.00155349 
54 7 1 0.502845 0.467358 0.492132 -0.00274744 -0.00329086 0.00423044 
59 9 1 0.514359 0.465388 0.498897 -0.00350384 -0.00461702 -0.00212146 
64 9 1 0.505648 0.463093 0.491056 -0.00459494 -0.000506618 0.00533415 
65 9 1 0.501684 0.470062 0.487545 0.0068444 -0.00324072 0.004264 
96 7 1 0.446824 0.489875 0.499372 -0.00203543 -0.000827197 -0.000845223 
97 7 1 0.44551 0.484764 0.493274 -0.00630967 0.00144707 -0.000440466 
98 9 1 0.444857 0.494547 0.497655 0.00218508 0.00888695 0.00248265 
100 7 1 0.438411 0.483769 0.491222 -0.00257623 -0.00339462 -0.000994105 
101 9 1 0.447161 0.47994 0.494815 -0.00445912 0.0123942 0.000178435 
102 9 1 0.447686 0.486584 0.488635 -0.00563039 0.00230597 0.0116869 
103 7 1 0.437793 0.477275 0.486557 -0.00732816 0.000881472 -0.000355087 
104 9 1 0.436929 0.487979 0.488242 -0.00189363 -0.00639769 0.00535728 
105 9 1 0.435773 0.483071 0.495864 0.00180233 0.000213652 -0.00533213 
106 7 1 0.430884 0.475265 0.484442 -0.00472105 -0.00279761 -0.00269814 
108 9 1 0.440322 0.478257 0.481888 -0.0122301 -0.00203451 0.00750223 
136 9 1 0.429078 0.479069 0.481129 0.00203687 -0.0054706 0.00047774 
137 9 1 0.428188 0.474989 0.489089 -0.000633985 -0.00202071 -0.00777577 
81 5 1 0.496842 0.487499 0.494514 -0.00261733 0.00195802 -0.000399178 
82 3 1 0.484335 0.489681 0.498104 0.000711597 0.00183438 0.00379369 
84 3 1 0.471883 0.489888 0.499354 -0.00214803 0.00464521 0.00291994 
85 3 1 0.474251 0.485523 0.494157 -0.00153581 0.00070649 0.00197196 
86 3 1 0.480928 0.485898 0.493203 -0.00449683 0.00255304 0.00173242 
87 6 1 0.471303 0.482545 0.491201 -0.0177682 0.00922875 0.00766543 
88 6 1 0.48283 0.484117 0.48859 0.00484405 0.00938206 0.00519674 
93 3 1 0.453544 0.491056 0.501433 -0.0026401 -0.00387343 -0.00477179 
95 5 1 0.459474 0.487343 0.496504 -0.00302257 0.00344761 0.00419228 
1 1 1 0.512551 0.483613 0.495212 0.00189061 0.00142393 0.00520783 
2 2 1 0.519318 0.484381 0.494713 -0.00581678 0.00212357 0.00301248 
5 3 1 0.509216 0.488443 0.499635 0.00442349 0.00589983 -0.00259879 
6 4 1 0.523514 0.481792 0.491959 -0.000822772 0.00158073 -0.00308183 
11 3 1 0.534302 0.491192 0.495802 0.00185409 -0.000414172 -0.00189063 
13 3 1 0.540846 0.490096 0.496804 0.00152405 0.00498828 -0.00127781 
14 6 1 0.532107 0.490495 0.49106 -0.00655486 0.00439972 0.0020154 
16 6 1 0.543448 0.488641 0.492489 0.00271438 0.0131265 -0.000436626 
33 9 1 0.521264 0.509786 0.498 -0.0065821 -0.00514284 -0.00772819 
34 9 1 0.525919 0.517026 0.497658 -0.003454 0.0135684 -0.00260391 
46 9 1 0.529303 0.526035 0.500534 0.00268275 0.00231911 0.00691613 
50 7 1 0.509427 0.477899 0.491764 -7.5816e-05 -0.00261531 -1.97901e-05 
52 9 1 0.512846 0.475085 0.488755 0.00790567 -9.62098e-05 0.0012506 
53 9 1 0.505637 0.479541 0.488422 0.000409681 -0.00830237 0.00102501 
22 6 1 0.568552 0.484243 0.496691 -0.0115032 0.0118771 0.00409916 
23 6 1 0.579975 0.4813 0.50028 0.0109898 0.00133353 0.017441 
120 7 1 0.588443 0.494073 0.497612 0.00333225 0.000633592 -0.00069985 
124 9 1 0.584492 0.496949 0.496054 0.00853172 -0.00437969 0.00531307 
125 9 1 0.587715 0.488884 0.496534 0.00125968 0.00483905 0.0056009 
130 9 1 0.591661 0.493786 0.482291 0.00587495 -0.00133866 0.0101267 
123 7 1 0.594153 0.496067 0.492855 0.00226154 0.001717 0.000498913 
126 7 1 0.594896 0.491777 0.485957 0.00143343 0.000588385 0.000853946 
127 9 1 0.598241 0.495544 0.495967 -0.00290461 -0.00567305 -0.00421302 
128 9 1 0.593425 0.501123 0.491256 0.00409823 -0.00302561 0.00861602 
129 10 1 0.601674 0.492235 0.482759 -0.00068062 0.000497595 -0.000217299 
131 9 1 0.59378 0.486679 0.487042 0.000799459 0.00591648 0.000180362 
132 9 1 0.602819 0.497309 0.4815 -0.001783 0.00799096 -0.000100658 
133 9 1 0.601631 0.48924 0.478118 -0.00697459 -0.00238824 -0.004866 
134 9 1 0.60494 0.490229 0.486401 0.00213184 -0.00141665 3.47172e-06 
48 9 1 0.53541 0.535769 0.497548 -0.00283082 0.00762229 0.00122125 
49 9 1 0.539896 0.528531 0.495749 0.000148883 0.00234513 -0.00501358 
68 9 1 0.49807 0.462125 0.500284 -0.00616922 0.00756792 -0.00363479 
55 7 1 0.511318 0.468559 0.501726 0.00218183 -0.00625277 0.000294672 
57 10 1 0.508371 0.463819 0.507358 -0.00505106 -0.00374669 -0.000580404 
58 9 1 0.513753 0.472469 0.504317 -0.00113217 -0.00914868 -0.00129238 
60 9 1 0.511788 0.463046 0.511327 0.00427262 -0.00406333 0.000787436 
61 9 1 0.507042 0.45922 0.504945 -0.00996447 -0.00668959 -0.00257378 
62 9 1 0.504362 0.466415 0.509335 -0.00584544 0.00211362 0.00836057 
99 9 1 0.444241 0.48802 0.503773 0.00190479 0.0015337 0.00963435 
77 3 1 0.493321 0.491523 0.506873 0.000513118 -0.0057037 0.0012635 
79 3 1 0.490506 0.489863 0.500322 -0.00595115 -0.0047476 -0.00425643 
80 6 1 0.490889 0.492383 0.511479 -0.00293459 -0.0155114 -0.000801404 
83 5 1 0.478376 0.494007 0.50324 -0.00138647 -6.18518e-05 -0.00151674 
89 3 1 0.465641 0.491124 0.501232 0.000895157 -0.00186222 -0.00290659 
90 3 1 0.462843 0.495126 0.506345 -0.00411145 -0.00159774 -0.00118589 
91 3 1 0.456113 0.495172 0.506615 -0.00041142 -0.000369118 -0.00254196 
92 6 1 0.465446 0.498127 0.509671 0.01375 -0.011534 -0.00846313 
94 6 1 0.453493 0.497633 0.510339 -0.0176881 -0.00852745 -0.00988983 
3 3 1 0.520128 0.490763 0.499551 0.000519226 -0.00256768 0.000185417 
4 3 1 0.5139 0.492836 0.502594 0.00131599 0.000934275 -0.003482 
7 2 1 0.514876 0.498903 0.507933 0.00877449 -0.00400276 -0.00312521 
8 3 1 0.524895 0.494909 0.502688 -0.00140026 -0.00553475 0.00286931 
9 1 1 0.521699 0.499462 0.507543 0.000470456 -0.00291595 -0.00250859 
10 3 1 0.531283 0.493987 0.501692 0.00231964 -0.000544508 0.00121101 
12 5 1 0.536708 0.494504 0.508727 0.000509571 -0.00368808 0.000116625 
15 3 1 0.543287 0.491789 0.503465 0.00618249 0.00615739 0.0064772 
24 4 1 0.510737 0.501395 0.510743 0.00199601 0.000282595 0.00165554 
25 7 1 0.525092 0.504915 0.511199 9.68867e-05 0.00533939 0.000885577 
26 8 1 0.527882 0.510453 0.506285 -0.000278964 7.63234e-05 -0.000750436 
27 9 1 0.528844 0.502909 0.514311 0.00184805 0.0190677 -0.00231064 
28 9 1 0.521907 0.507688 0.51458 -0.0134456 -0.00980641 -0.00115754 
29 7 1 0.523223 0.513827 0.500961 -0.00181627 0.0010138 -0.00131218 
30 7 1 0.531528 0.51581 0.510773 0.0021237 0.00182163 -0.000923005 
31 9 1 0.531245 0.508191 0.502854 -0.00862546 0.00503461 8.22418e-05 
32 10 1 0.517745 0.51798 0.504088 -0.00257212 0.00345279 -0.00371027 
35 9 1 0.515666 0.515004 0.508116 -0.014848 0.00499261 -0.00239354 
36 9 1 0.514549 0.518995 0.499896 -0.00356139 0.00868445 -0.0105748 
37 9 1 0.519755 0.522529 0.506158 0.00153056 0.0103227 -0.000205147 
38 7 1 0.535981 0.520581 0.506608 0.00224263 0.00302827 0.0026067 
39 9 1 0.534378 0.513179 0.514364 -0.00988521 -0.000969033 0.000746961 
40 9 1 0.528 0.518677 0.513254 0.00937978 0.00702213 -0.00402724 
41 7 1 0.53309 0.5273 0.503843 0.00304864 0.00312594 0.00142803 
42 9 1 0.537583 0.517915 0.502156 -0.0023522 0.0119815 0.00420046 
43 9 1 0.539587 0.521982 0.51009 -0.00882365 -0.00443182 0.00652797 
56 9 1 0.503355 0.474812 0.50021 -0.000641672 -0.0073763 -0.00436422 
75 3 1 0.50278 0.48868 0.500916 -0.000136071 -0.00159122 -0.00226942 
76 3 1 0.499942 0.49088 0.507194 2.49204e-05 -0.0020456 0.00100806 
78 6 1 0.502286 0.490931 0.511906 0.0106308 -0.00510506 -0.0068686 
17 5 1 0.573447 0.493822 0.511311 0.00383313 -0.0040133 -0.00357697 
18 3 1 0.567932 0.491412 0.504922 -4.75303e-05 0.00181566 0.00364429 
19 3 1 0.579195 0.488622 0.508295 0.00449335 0.00348594 0.00123567 
20 3 1 0.570837 0.486534 0.500796 0.00308611 -0.00154787 0.00551064 
21 3 1 0.577108 0.484748 0.502719 0.00095919 0.000703816 0.000343315 
109 3 1 0.549367 0.492093 0.506128 -0.0025784 0.00315423 -0.00483664 
110 3 1 0.552207 0.496077 0.511327 0.00398435 0.00292792 -0.001254 
111 3 1 0.558754 0.497568 0.51046 0.00289843 -0.00296095 0.000513624 
112 6 1 0.550031 0.497377 0.515966 -0.00887634 0.00104775 -0.00897321 
113 3 1 0.561696 0.49352 0.505405 0.00238719 -0.00709227 0.00150845 
114 6 1 0.561262 0.501127 0.513269 0.0179719 -0.0144188 -0.00215821 
115 5 1 0.555831 0.488957 0.500945 -6.93671e-05 0.00191309 0.00212042 
116 7 1 0.585867 0.489908 0.510336 0.00382577 -0.000326039 -0.00149422 
117 7 1 0.589409 0.495163 0.505656 0.00691069 -0.000429322 -0.00111375 
118 9 1 0.588459 0.485312 0.510713 0.00629493 -0.00494092 0.00868862 
119 9 1 0.585718 0.492242 0.515452 -0.00737845 0.0159947 -0.000793879 
121 9 1 0.594224 0.494603 0.506883 0.000516574 0.0017936 -0.0163633 
122 9 1 0.587818 0.500055 0.507034 0.00929098 -0.00531881 -0.00834793 
44 10 1 0.537867 0.53159 0.499682 0.00125756 0.00341197 -0.000574786 
45 9 1 0.53159 0.530254 0.508124 0.0132682 0.00222393 0.00273918 
47 9 1 0.54135 0.533257 0.503287 0.00445556 0.00627181 0.00226578 
ITEM: TIMESTEP
400
ITEM: NUMBER OF ATOMS
140
ITEM: BOX BOUNDS pp pp pp
-120.23 109.574
-104.091 109.748
-102.517 103.397
ITEM: ATOMS id type mol xs ys zs vx vy vz 
107 9 1 0.439272 0.471942 0.488276 0.00719077 0.00142587 -0.00528493 
135 10 1 0.428185 0.469932 0.48058 -0.0032265 0.00320574 0.000407764 
138 9 1 0.430256 0.470979 0.475597 -0.00588665 0.00286151 -0.007086 
139 9 1 0.423199 0.469855 0.480289 -0.0096354 0.00923114 0.00318232 
140 9 1 0.429973 0.465344 0.482762 -0.0062447 -0.00550387 0.000793413 
63 7 1 0.494784 0.465468 0.496033 0.00247425 0.00385048 0.000967842 
66 7 1 0.491459 0.45974 0.491721 0.000517821 0.00037358 0.0018812 
67 9 1 0.492015 0.469962 0.49542 0.00654312 -0.0023649 -0.00435664 
69 10 1 0.485271 0.456672 0.494664 -0.000218603 0.00196727 6.90252e-05 
70 9 1 0.494696 0.455594 0.491301 -0.0066736 -0.000164603 -0.00630345 
71 9 1 0.490439 0.461724 0.486604 0.00506825 0.00271579 0.00489007 
72 9 1 0.486341 0.454012 0.499393 -0.00909643 -0.000224976 0.00821897 
73 9 1 0.483417 0.453316 0.490759 -0.00197009 -0.00313432 -0.00507195 
74 9 1 0.482073 0.460695 0.495669 -0.00928787 0.00262222 -0.00103532 
51 8 1 0.505072 0.472495 0.497338 0.00195287 -0.00173256 -0.00154809 
54 7 1 0.5015 0.467001 0.49315 -0.00102224 0.000676834 -0.00147292 
59 9 1 0.514576 0.46865 0.498733 -0.00613011 0.0118574 0.00496295 
64 9 1 0.504102 0.462428 0.493469 -0.00239682 0.00379774 -0.000216183 
65 9 1 0.501107 0.468643 0.487871 -0.0113328 -0.00429229 -0.000175171 
96 7 1 0.446871 0.489139 0.498988 0.00371073 0.000496512 0.00364302 
97 7 1 0.445444 0.484539 0.492535 0.00363755 -4.01106e-05 0.00106809 
98 9 1 0.444161 0.493668 0.498066 0.000385577 0.00119539 -0.00131036 
100 7 1 0.438656 0.481778 0.492469 0.00232515 -0.00189248 0.00112498 
101 9 1 0.448618 0.480337 0.492552 0.00379588 0.00306734 -0.00223591 
102 9 1 0.446231 0.487522 0.487904 0.00341795 -0.00375198 0.000996151 
103 7 1 0.437202 0.47665 0.486633 0.000731327 -0.00253069 -0.00159767 
104 9 1 0.435632 0.486096 0.491764 -0.00584786 -0.00399923 0.00380849 
105 9 1 0.437825 0.479406 0.497476 -0.00303051 -0.00398547 0.000843422 
106 7 1 0.430064 0.475743 0.485576 -0.00178079 0.00160074 0.00274718 
108 9 1 0.439349 0.478488 0.481922 0.00128604 -0.00304883 0.0017625 
136 9 1 0.428109 0.480225 0.483323 -0.00426922 0.000207948 0.00906734 
137 9 1 0.428008 0.474562 0.490563 -0.00218254 -0.00164103 -0.00291213 
81 5 1 0.49672 0.490627 0.496151 0.00214989 0.00369387 0.00148984 
82 3 1 0.484191 0.488955 0.499176 0.00709187 0.00172423 -0.000192684 
84 3 1 0.472028 0.489498 0.498332 0.00353309 -0.00333906 -0.00151409 
85 3 1 0.474974 0.48529 0.493381 0.0022103 -0.00235233 -0.000844817 
86 3 1 0.481657 0.485344 0.493602 0.00723776 -0.000901471 -0.00142752 
87 6 1 0.472507 0.482738 0.489597 0.00894406 0.00279554 -0.00886126 
88 6 1 0.484552 0.483752 0.48958 -0.0101673 -0.00401172 -0.0105648 
93 3 1 0.453786 0.491012 0.500461 0.00310219 0.00271921 -0.000694125 
95 5 1 0.459725 0.48728 0.49492 0.00524078 -0.00108859 -0.00385248 
1 1 1 0.511646 0.483333 0.495866 -0.000952795 0.00365301 -0.0033469 
2 2 1 0.51812 0.483418 0.495775 -0.00406555 0.00439794 0.00441142 
5 3 1 0.508889 0.488267 0.500599 -0.00100612 0.000544393 -0.00109271 
6 4 1 0.521788 0.479987 0.492914 -0.000447484 -0.00362627 0.00473688 
11 3 1 0.534743 0.496098 0.495081 0.00107601 0.00924266 -0.0022507 
13 3 1 0.541359 0.496088 0.496008 0.00128692 0.00175965 -0.00344448 
14 6 1 0.532669 0.496853 0.490283 0.00283382 0.00892061 -0.00191274 
16 6 1 0.544292 0.497654 0.492001 -0.00678478 0.00463773 -0.00665915 
33 9 1 0.520995 0.508773 0.497228 0.000453008 -0.017258 -0.000858029 
34 9 1 0.525244 0.516135 0.496042 -0.00190618 -0.00123424 -0.00838116 
46 9 1 0.529642 0.52873 0.504418 0.00497011 -0.00506743 0.00375445 
50 7 1 0.507505 0.478236 0.492428 0.0004167 -0.000723104 0.00477494 
52 9 1 0.509903 0.475852 0.488172 -0.00406958 0.00472406 0.0058724 
53 9 1 0.50346 0.480751 0.490524 0.002935 -0.00144096 0.00690027 
22 6 1 0.56714 0.480776 0.501257 0.00261373 0.00355473 -0.0010385 
23 6 1 0.579029 0.480239 0.501018 0.00181875 0.00471745 0.00547853 
120 7 1 0.591019 0.49394 0.496941 -0.00158893 0.000826038 0.00186686 
124 9 1 0.587901 0.497923 0.495395 0.00733899 -0.00271612 -0.00673784 
125 9 1 0.58928 0.489067 0.495477 0.00381829 -6.43687e-05 0.00369456 
130 9 1 0.593393 0.496345 0.482391 0.00392172 -0.00192401 0.00168349 
123 7 1 0.597119 0.495237 0.492616 0.00125149 -0.00774662 -0.000343454 
126 7 1 0.596824 0.493128 0.484738 0.00195183 0.00223238 -0.00489336 
127 9 1 0.600766 0.492278 0.495043 -0.00249791 -0.00384231 0.00345286 
128 9 1 0.598175 0.500525 0.492637 -0.00118139 -0.00795133 0.00792033 
129 10 1 0.603015 0.49401 0.480497 0.00372136 0.00443891 -0.000597035 
131 9 1 0.595558 0.487895 0.484567 0.00338966 0.0052243 -0.0103539 
132 9 1 0.603893 0.499318 0.480173 0.00531218 0.00950118 -0.002735 
133 9 1 0.602308 0.491984 0.475364 0.00195977 0.0031782 -0.00672877 
134 9 1 0.606839 0.491505 0.483044 0.0101629 0.00022402 -0.000716481 
48 9 1 0.536908 0.538302 0.502938 0.00093888 0.00644729 0.013024 
49 9 1 0.537121 0.532571 0.495898 -0.00560354 0.00803576 -0.00302194 
68 9 1 0.49526 0.463985 0.501405 0.0141909 0.00470353 -0.00575317 
55 7 1 0.510655 0.469853 0.50191 -0.0021213 0.00293337 0.00052254 
57 10 1 0.509539 0.463504 0.506512 -0.00194102 0.000374737 -0.0016253 
58 9 1 0.511653 0.473845 0.505446 -0.000176902 -0.0048352 -0.00131638 
60 9 1 0.513567 0.462934 0.509821 0.00245126 0.00503088 0.0025354 
61 9 1 0.508943 0.459183 0.503201 -0.00217957 -0.00316798 -0.00712265 
62 9 1 0.505391 0.464461 0.509521 -0.0096639 0.000607459 -0.00132799 
99 9 1 0.444972 0.486526 0.503481 0.00104424 -0.000730059 0.00324487 
77 3 1 0.492842 0.48761 0.508309 -0.000636469 -0.00395298 0.0053507 
79 3 1 0.49033 0.489437 0.501816 -0.00174202 -0.00259712 0.0024601 
80 6 1 0.490182 0.48555 0.512315 0.0113638 -0.0162836 0.00648549 
83 5 1 0.478014 0.492801 0.503808 0.000770456 -0.000978808 0.00241275 
89 3 1 0.465836 0.491355 0.499669 0.00136938 -0.00291102 -0.00498052 
90 3 1 0.463255 0.495542 0.504913 -0.00209336 -0.0031982 -0.00481367 
91 3 1 0.456703 0.495181 0.505356 -0.00105445 0.00503468 0.00257194 
92 6 1 0.466078 0.498775 0.507746 0.00352309 -0.00584902 -0.00659738 
94 6 1 0.454301 0.49763 0.509298 0.0132743 0.00952343 0.00735925 
3 3 1 0.520025 0.489595 0.50045 -0.00393243 -0.00121253 -0.00191711 
4 3 1 0.513929 0.492142 0.50308 0.00459042 0.00460528 0.00454844 
7 2 1 0.515497 0.499039 0.506682 0.0022948 -0.000686571 -0.0042774 
8 3 1 0.52483 0.494176 0.502232 0.000964331 0.000197312 -0.00348931 
9 1 1 0.521939 0.499433 0.506461 -0.000320868 -0.000283314 0.0022263 
10 3 1 0.531243 0.494115 0.50099 0.00212584 0.00190119 -0.00359958 
12 5 1 0.536687 0.493047 0.507679 -0.00302792 -0.00333731 0.00126933 
15 3 1 0.54348 0.49435 0.502596 -0.000349586 -4.01711e-05 0.000911904 
24 4 1 0.511481 0.502618 0.508598 -0.00330533 0.00301359 -0.00178944 
25 7 1 0.525809 0.504706 0.509929 0.000512643 -0.00267357 -0.00180426 
26 8 1 0.528266 0.510375 0.504974 0.00178616 -0.000389912 -0.0029489 
27 9 1 0.529889 0.502304 0.511938 0.00553894 -0.010101 -0.00930282 
28 9 1 0.523374 0.507101 0.514066 0.0148305 -0.00414801 0.00370993 
29 7 1 0.523123 0.512931 0.499823 -0.0016486 -0.00465956 -0.000105197 
30 7 1 0.531509 0.516031 0.509243 0.0025441 -8.86282e-05 -0.00208378 
31 9 1 0.531899 0.50807 0.501927 0.0132735 0.0161436 -0.0140544 
32 10 1 0.517638 0.517164 0.502899 0.00133741 -0.005002 0.00115603 
35 9 1 0.517182 0.516148 0.508429 0.00488965 0.00347931 0.00244658 
36 9 1 0.513417 0.515801 0.500132 0.00241164 -0.0122282 -0.00333021 
37 9 1 0.518833 0.522365 0.502011 0.0013514 -0.00308245 -0.00766453 
38 7 1 0.535993 0.520497 0.504857 0.00146851 -0.00223199 -0.00317903 
39 9 1 0.534205 0.513924 0.513373 -0.000273457 0.000665471 -0.00425981 
40 9 1 0.527822 0.519044 0.511298 0.014836 0.00702975 -0.00422192 
41 7 1 0.5345 0.528219 0.505733 0.00113838 -0.00393193 0.00068653 
42 9 1 0.535485 0.519393 0.499398 0.00067461 0.00893653 0.00671482 
43 9 1 0.54072 0.519599 0.506432 -0.00807555 0.0011758 -0.00262419 
56 9 1 0.50198 0.475027 0.500765 -0.00179089 -0.00219218 0.00907092 
75 3 1 0.50255 0.488711 0.50215 0.00012826 -0.000672734 0.00489547 
76 3 1 0.499448 0.487097 0.50852 -0.00124177 -0.00412104 0.00180322 
78 6 1 0.502014 0.486367 0.513019 -0.0042859 -0.00244751 0.000615339 
17 5 1 0.573871 0.49427 0.511352 -0.00184941 0.000594778 -0.00190351 
18 3 1 0.567626 0.489632 0.507425 -0.00266024 0.0065606 0.0038136 
19 3 1 0.579821 0.48931 0.507242 -0.00467381 -0.00372083 0.00442202 
20 3 1 0.570087 0.484209 0.503605 -0.000436523 0.00583282 0.00133855 
21 3 1 0.576744 0.484197 0.503437 -0.002097 -0.00171604 0.00386916 
109 3 1 0.549504 0.493896 0.50563 -0.00715542 -0.00164145 -0.000168617 
110 3 1 0.551861 0.4971 0.511586 -0.00448076 0.000861078 -0.000491332 
111 3 1 0.558487 0.496529 0.512517 0.00139331 -0.000247228 0.00140082 
112 6 1 0.548793 0.498336 0.515588 0.0106232 -0.00766378 0.0130027 
113 3 1 0.561466 0.491826 0.508089 -0.00606105 0.000366538 0.00121882 
114 6 1 0.561111 0.499387 0.515977 0.00109867 -0.00503347 0.00475614 
115 5 1 0.555652 0.488928 0.502317 -0.00158567 -0.000958557 -0.000428426 
116 7 1 0.586689 0.490011 0.509553 -0.0053526 -0.000274555 -0.00707021 
117 7 1 0.591587 0.494104 0.505079 -0.00645743 -0.00104622 -0.00199153 
118 9 1 0.58876 0.484996 0.509639 -0.00987822 2.65642e-06 0.0109131 
119 9 1 0.586955 0.49213 0.514754 -0.000940007 0.0105639 -0.0140775 
121 9 1 0.596009 0.491758 0.506368 -0.0184567 -0.00674991 0.0108471 
122 9 1 0.591576 0.499218 0.506915 -0.0110119 -0.0100538 0.0125699 
44 10 1 0.538294 0.533386 0.501279 -0.000866221 0.00202946 0.00340161 
45 9 1 0.535362 0.529616 0.511046 -0.00551043 -0.00267561 -0.00161401 
47 9 1 0.543161 0.532503 0.502145 0.00755211 0.00540419 -0.00617908 
ITEM: TIMESTEP
600
ITEM: NUMBER OF ATOMS
140
ITEM: BOX BOUNDS pp pp pp
-120.23 109.574
-104.091 109.748
-102.517 103.397
ITEM: ATOMS id type mol xs ys zs vx vy vz 
107 9 1 0.438617 0.472504 0.485479 -0.0060135 -0.00910199 7.67776e-05 
135 10 1 0.426136 0.472915 0.48091 -0.00260235 0.00357604 0.00173355 
138 9 1 0.42745 0.475843 0.476394 -0.0062926 0.00846641 -0.0033601 