ITEM: TIMESTEP
0
ITEM: NUMBER OF ATOMS
140
ITEM: BOX BOUNDS pp pp pp
-30.2304 19.5736
-14.0911 19.7477
-12.5168 13.397
ITEM: ATOMS id type mol xs ys zs vx vy vz 
63 7 1 0.491273 0.286412 0.471131 -0.00302009 0.000722838 0.00374927 
66 7 1 0.474761 0.261517 0.433146 -0.0013275 -9.58984e-05 0.00315943 
67 9 1 0.477641 0.307422 0.491237 -0.00603916 0.00302676 0.00396298 
68 9 1 0.499751 0.266277 0.500107 0.00975381 -0.00731548 -0.0079109 
69 10 1 0.452707 0.238549 0.460938 -0.00337545 0.00276569 -0.00205912 
70 9 1 0.488165 0.240233 0.413021 -0.0107155 -0.000311426 -0.00450295 
71 9 1 0.465271 0.28107 0.403872 -0.00529453 -0.0149009 -0.0105173 
72 9 1 0.461594 0.218169 0.489881 -0.000314304 -0.0126902 -0.00850901 
73 9 1 0.441132 0.220862 0.432518 -0.00667443 -0.013219 -0.0120637 
74 9 1 0.438754 0.259216 0.480696 -0.00448356 0.00338061 -0.0139339 
77 3 1 0.474107 0.462331 0.544174 -0.00381066 -0.00449997 0.00440098 
79 3 1 0.463592 0.438671 0.505007 0.00280236 0.00420529 0.000918355 
80 6 1 0.461873 0.479023 0.570921 -0.000148116 -0.0117006 -0.00222858 
81 5 1 0.489388 0.418851 0.474264 -0.0020901 0.00129812 0.00167875 
82 3 1 0.435078 0.432079 0.493473 0.00057737 0.000509978 0.00176464 
83 5 1 0.409239 0.451694 0.524696 0.0026365 0.00171397 -0.00228318 
84 3 1 0.38433 0.431244 0.491616 0.00300074 0.00179156 -0.0038668 
85 3 1 0.395982 0.407466 0.453503 0.0031204 -1.95986e-05 -0.00130073 
86 3 1 0.424552 0.407933 0.454548 0.00373246 0.0014488 -0.00154784 
87 6 1 0.384526 0.39039 0.425916 -0.0144696 0.0137069 -0.0155105 
88 6 1 0.436803 0.391193 0.427877 0.00058718 0.00392413 0.0147964 
89 3 1 0.355512 0.437228 0.500783 -0.000846536 0.00398487 0.000418319 
90 3 1 0.343982 0.461442 0.538542 -0.00277862 -0.00363502 0.000322789 
91 3 1 0.315432 0.46134 0.537465 0.000195233 0.0028934 0.00271368 
92 6 1 0.355512 0.478658 0.565876 -0.00766851 0.000417311 -0.00393135 
93 3 1 0.304688 0.436989 0.499031 -0.0033378 0.0012346 0.00158698 
94 6 1 0.303246 0.478388 0.563919 -0.013157 -0.00911535 0.0108192 
95 5 1 0.330487 0.416658 0.46809 0.000841151 -0.000316452 -8.23357e-05 
96 7 1 0.275234 0.431233 0.489061 0.000505342 0.00323146 0.00398947 
97 7 1 0.269158 0.400977 0.446494 -0.00399536 -0.0019131 -0.00384104 
98 9 1 0.266356 0.460306 0.478764 0.013133 -0.00833063 0.000587335 
99 9 1 0.265866 0.420731 0.525517 0.00636143 -0.00656773 -0.00506187 
100 7 1 0.238731 0.396854 0.439027 -0.00193581 -0.00290357 -0.00452433 
101 9 1 0.277695 0.371991 0.458362 0.00043278 0.0106804 0.0103115 
102 9 1 0.278537 0.410158 0.409417 0.00613814 -0.0153116 0.00381352 
103 7 1 0.231742 0.362983 0.402124 0.00147443 0.00305643 0.00369337 
104 9 1 0.23043 0.425234 0.424341 0.00425333 0.00363242 -0.00158604 
105 9 1 0.229321 0.390215 0.476981 -0.00183212 -0.0126619 -0.0100505 
106 7 1 0.201195 0.359184 0.396209 0.00262897 0.00378263 0.00228289 
107 9 1 0.239866 0.335105 0.418653 0.00194722 -0.0143885 0.00397282 
108 9 1 0.241058 0.36793 0.363634 -0.0152665 0.00899014 -0.000691067 
135 10 1 0.193616 0.322405 0.365456 -0.00411613 -0.000318515 0.00263851 
136 9 1 0.193168 0.385947 0.376635 0.00958317 0.0119151 0.0110033 
137 9 1 0.191695 0.356723 0.434896 -0.0123431 -0.00548583 -0.00211745 
138 9 1 0.202558 0.323323 0.326247 0.0143655 -0.0119092 0.0127831 
139 9 1 0.171424 0.320618 0.361954 0.0129014 0.00306029 -0.00356339 
140 9 1 0.200787 0.295519 0.385894 -0.0151129 -0.010993 -0.00763757 
1 1 1 0.555356 0.402822 0.469347 -0.00389889 0.00285366 -0.00331995 
2 2 1 0.582712 0.407638 0.471119 0.00421968 0.000381512 0.00267829 
3 3 1 0.589243 0.439155 0.502155 0.000602343 -0.0025854 0.00260861 
4 3 1 0.564692 0.454504 0.520617 -0.00313088 -0.00468576 -0.00229313 
5 3 1 0.544045 0.431756 0.499595 -0.00183296 -0.00230834 -0.00103059 
6 4 1 0.598543 0.386211 0.448929 0.00285052 0.00221253 -0.000638388 
7 2 1 0.571301 0.486014 0.551568 0.00411149 0.00197833 0.00082398 
8 3 1 0.6099 0.461612 0.523424 0.00416376 -0.00197061 0.00393523 
9 1 1 0.598655 0.49078 0.553495 0.00335754 -0.000864375 -0.000189788 
10 3 1 0.639242 0.454385 0.516059 0.00250801 0.00215442 0.000555127 
11 3 1 0.651446 0.430482 0.4784 -0.00135723 -0.00335148 0.0044516 
12 5 1 0.664104 0.471769 0.552432 -0.00226134 -0.00183118 -0.000351739 
13 3 1 0.679903 0.428785 0.48245 0.00226974 -0.00407007 -0.0042004 
14 6 1 0.64089 0.414923 0.448577 0.0100858 -0.0120871 0.00508438 
15 3 1 0.690034 0.451084 0.523303 0.00315858 -0.00164199 0.00286333 
16 6 1 0.692347 0.411796 0.456383 0.0128031 -0.000642476 0.0158029 
17 5 1 0.821299 0.461304 0.579964 0.000412089 0.000998734 -0.000393064 
18 3 1 0.797439 0.444111 0.54161 -0.00187588 0.00243861 -0.00261628 
19 3 1 0.847771 0.44114 0.551774 -0.00081773 0.000969546 -0.00445743 
20 3 1 0.809944 0.420754 0.504074 0.00334213 0.00394031 -0.00391132 
21 3 1 0.838335 0.419046 0.509801 -0.000728918 -0.004608 -0.000649214 
22 6 1 0.799213 0.405361 0.473837 -0.00996385 0.00487969 -0.0115895 
23 6 1 0.851122 0.401943 0.484525 0.0001083 0.0144944 -0.0121546 
50 7 1 0.542017 0.370994 0.440265 0.00368634 -0.00167499 -0.000389805 
51 8 1 0.529443 0.33928 0.476476 0.000361255 -0.00104296 -0.00330924 
52 9 1 0.556724 0.355562 0.414998 -0.00597339 -0.00213084 0.00309112 
53 9 1 0.527135 0.384502 0.413768 0.0151553 -0.000830765 -0.00762573 
54 7 1 0.513014 0.310199 0.442392 -0.00286559 -0.00388214 0.00165811 
55 7 1 0.552459 0.320379 0.508924 -0.00311417 0.000389122 0.001904 
56 9 1 0.5153 0.354044 0.503129 0.00810258 0.0030722 0.00612261 
57 10 1 0.544521 0.289155 0.548465 0.00281539 0.00257382 -0.000479146 
58 9 1 0.562151 0.344463 0.531339 -0.0108944 0.00694353 -0.00412239 
59 9 1 0.567885 0.307343 0.482983 0.0133077 0.00952253 -0.000304576 
60 9 1 0.562371 0.281587 0.572186 -0.00801347 0.00910032 0.0108529 
61 9 1 0.538479 0.261361 0.529393 -0.000738964 -0.0109909 -0.00506153 
62 9 1 0.528518 0.300465 0.574398 -0.00169836 0.0143927 -0.00793159 
64 9 1 0.526768 0.290749 0.420093 0.010796 -0.00493958 0.00905159 
65 9 1 0.501441 0.328232 0.41417 -0.00665596 0.011682 -0.00323999 
75 3 1 0.514633 0.438212 0.50806 0.00159631 0.00183173 0.000181956 
76 3 1 0.502647 0.462191 0.545886 0.0046643 0.000355457 -0.00321367 
78 6 1 0.513405 0.478713 0.574498 4.84224e-05 -0.00827263 -0.00835327 
109 3 1 0.71825 0.455412 0.538252 0.000379299 -0.00108731 -0.00424718 
110 3 1 0.728153 0.47781 0.579466 -0.00184153 0.000766602 0.00396296 
111 3 1 0.756533 0.47589 0.584334 0.000870067 0.00233386 0.00151503 
112 6 1 0.715589 0.494891 0.605215 0.000816339 -0.0154972 -0.00574844 
113 3 1 0.768658 0.452037 0.54687 0.00096847 0.0016828 -0.00276878 
114 6 1 0.767542 0.491392 0.614106 0.00176511 0.00261788 -0.014627 
115 5 1 0.744391 0.434435 0.509627 0.000524012 -0.00261948 3.41239e-05 
116 7 1 0.87607 0.445268 0.570299 -0.000343138 -0.000918986 0.0029762 
117 7 1 0.894642 0.468765 0.534344 -0.00185712 -0.00387733 -0.000247979 
118 9 1 0.884502 0.415386 0.577726 0.0109925 -0.00215331 0.00630142 
119 9 1 0.875701 0.461384 0.607663 4.5936e-05 0.0133964 0.00100227 
120 7 1 0.899299 0.449589 0.481418 0.000173173 -0.000195677 -0.000936344 
121 9 1 0.914189 0.470338 0.554987 -0.010546 -0.00713782 -0.00445002 
122 9 1 0.887142 0.499467 0.529111 -0.00406577 0.013185 0.000920304 
123 7 1 0.923808 0.468191 0.455067 -0.00369452 -0.00107379 0.00238004 
124 9 1 0.881117 0.452213 0.456834 -0.00981824 0.00892955 -0.00363456 
125 9 1 0.903978 0.417773 0.487398 -0.00559664 -0.0159007 0.00308287 
126 7 1 0.930145 0.448075 0.403425 0.00119267 0.00127526 -0.00447522 
127 9 1 0.940995 0.463516 0.481732 -0.00603777 -0.00533251 0.00463696 
129 10 1 0.959423 0.454936 0.388384 -0.00108649 -0.00303579 -0.00244053 
130 9 1 0.916206 0.459157 0.37313 0.00783799 -0.00194746 0.00757024 
131 9 1 0.927562 0.415575 0.406778 0.00342375 -0.0101821 0.00792734 
132 9 1 0.964139 0.486896 0.385551 0.00839442 -0.00998704 -0.0126802 
133 9 1 0.963769 0.440267 0.351013 0.00843811 -0.00538538 0.00452962 
134 9 1 0.972622 0.441327 0.418181 0.0147141 0.00909052 0.00484502 
24 4 1 0.555493 0.507455 0.573934 -0.00215267 -0.00137865 0.0024753 
25 7 1 0.612118 0.522548 0.582449 0.00368592 0.00060579 0.0035421 
26 8 1 0.625544 0.553338 0.545964 -0.00416189 0.00262567 -0.00223348 
27 9 1 0.626676 0.509148 0.60968 -0.00505681 0.0142986 -0.00248109 
28 9 1 0.597469 0.538432 0.607191 -0.0053769 -0.00327792 0.0152957 
29 7 1 0.604732 0.572116 0.508834 0.00364181 0.0036654 -0.00085594 
30 7 1 0.642106 0.58276 0.579462 -0.00267624 -0.00180009 0.00209675 
31 9 1 0.639992 0.537598 0.52089 -0.00932771 0.00387377 -0.00657124 
32 10 1 0.58379 0.598602 0.534854 0.00242387 0.00366827 0.00128449 
33 9 1 0.594087 0.548305 0.487577 0.0153397 -0.0108511 -0.00392583 
34 9 1 0.615312 0.589014 0.478631 -0.0147128 -0.012271 -0.00748206 
35 9 1 0.571562 0.581899 0.563083 -0.00731629 -0.0131588 0.015889 
36 9 1 0.57001 0.610579 0.505032 -0.0113426 -0.00530838 -0.00234835 
37 9 1 0.59345 0.62385 0.554765 0.00446857 0.00417793 -0.00293636 
38 7 1 0.660921 0.612052 0.551502 -0.00283215 -0.00254405 -0.00113758 
39 9 1 0.655843 0.563796 0.60261 -0.0095388 0.00967527 -0.00327044 
40 9 1 0.629216 0.598851 0.607459 -0.00939858 -0.0133013 0.000437421 
41 7 1 0.647394 0.649334 0.529622 -0.00173587 0.00265161 0.00158841 
42 9 1 0.672737 0.596254 0.521513 0.00600759 0.0114285 -0.012355 
43 9 1 0.675281 0.622892 0.581226 -0.0140534 -0.0031283 -0.00834652 
44 10 1 0.668269 0.677601 0.507258 -0.00109547 0.00236 -0.000256718 
45 9 1 0.636456 0.664784 0.561105 0.0116907 -0.00707836 0.0111884 
46 9 1 0.633065 0.642605 0.498571 -0.00962117 -0.0103508 -0.00209067 
47 9 1 0.68285 0.686661 0.537465 -0.0114883 -0.0117548 0.00647505 
48 9 1 0.658124 0.704481 0.492273 -0.000835237 -0.010876 -0.0098167 
49 9 1 0.679264 0.663223 0.475026 0.00288144 0.0130772 -0.00168716 
128 9 1 0.92129 0.500588 0.449138 0.0102891 0.0105769 0.0150833 
ITEM: TIMESTEP
200
ITEM: NUMBER OF ATOMS
140
ITEM: BOX BOUNDS pp pp pp
-29.936 19.2792
-13.8911 19.5477
-12.3637 13.2439
ITEM: ATOMS id type mol xs ys zs vx vy vz 
63 7 1 0.480383 0.294633 0.463128 0.00208709 -0.00272136 -8.19087e-06 
66 7 1 0.464859 0.264749 0.423553 0.00554189 0.00515566 -0.000696931 
67 9 1 0.469883 0.324177 0.46956 0.00462448 -0.00371608 -0.0278031 
68 9 1 0.481585 0.278374 0.504664 0.0243461 0.00584271 0.00247991 
69 10 1 0.443195 0.238924 0.456349 0.00763521 0.00858498 0.0017475 
70 9 1 0.477687 0.252056 0.389862 -0.00309419 0.00654441 -0.0103469 
71 9 1 0.449532 0.286804 0.398971 -0.00687841 0.00501209 -0.00252231 
72 9 1 0.449425 0.220508 0.492336 0.00441255 -0.0146295 -0.00397628 
73 9 1 0.424221 0.22072 0.437584 0.0109294 0.0096809 0.0171749 
74 9 1 0.428478 0.264914 0.479926 -0.0171677 0.0350302 0.00481263 
77 3 1 0.474412 0.451829 0.558908 -0.0128337 -0.00595705 5.40673e-05 
79 3 1 0.465215 0.4557 0.504308 0.0064969 -0.00616976 -0.00550521 
80 6 1 0.466043 0.483621 0.581511 0.0337339 -0.0238566 0.034425 
81 5 1 0.492584 0.425676 0.471462 -0.0114435 0.00525915 -0.0044227 
82 3 1 0.442243 0.419222 0.50136 -0.00887144 0.00317239 -0.00594526 
83 5 1 0.413124 0.457274 0.525632 0.00786742 0.0071069 0.00625953 
84 3 1 0.387499 0.446303 0.475939 0.00600429 0.00176463 0.0045856 
85 3 1 0.401608 0.406629 0.452829 -0.00504768 0.00182293 -0.011758 
86 3 1 0.432023 0.427552 0.435415 0.00292792 0.00286205 0.00381325 
87 6 1 0.390832 0.404257 0.411262 -0.0124835 -0.045204 -0.00587266 
88 6 1 0.439351 0.392624 0.424486 -0.0304796 -0.0548967 0.0367911 
89 3 1 0.364696 0.422318 0.518908 0.00628156 -0.0127555 -0.00507619 
90 3 1 0.350682 0.459239 0.54053 -0.000585329 -0.000148193 -0.0093651 
91 3 1 0.319058 0.451495 0.545055 -0.00245278 -0.00374441 0.00955249 
92 6 1 0.354529 0.448933 0.589481 -0.0215587 -0.00692172 -0.0420451 
93 3 1 0.313207 0.416816 0.510153 -0.0277199 -0.0188642 -0.00126803 
94 6 1 0.312426 0.482645 0.521281 0.0102185 -0.00553241 -0.0247924 
95 5 1 0.336372 0.432493 0.452712 -0.00616834 0.00147306 0.000768917 
96 7 1 0.283256 0.433158 0.480538 0.00606933 0.00774024 -0.00938987 
97 7 1 0.2721 0.391278 0.461151 -0.00184006 0.001268 0.000387938 
98 9 1 0.281209 0.451534 0.440759 0.00696088 0.03099 -0.0101666 
99 9 1 0.26847 0.444554 0.514975 0.0279397 0.00908829 0.0253383 
100 7 1 0.24256 0.401352 0.438707 -0.00333101 -0.00381529 -0.00322606 
101 9 1 0.269896 0.366399 0.492359 0.0331121 0.00564219 0.00544044 
102 9 1 0.285398 0.379726 0.424547 -0.0127305 -0.0066946 -0.00583955 
103 7 1 0.232651 0.364904 0.404305 0.00083391 -0.000841214 0.00453739 
104 9 1 0.240811 0.433971 0.422031 -0.0380355 -0.0279865 0.00728375 
105 9 1 0.227194 0.404135 0.477474 0.016095 0.0144796 -0.0283037 
106 7 1 0.199161 0.359758 0.405863 0.00857706 0.00332847 0.00046979 
107 9 1 0.244702 0.334781 0.408552 -0.0128441 0.00836709 -0.0217923 
108 9 1 0.237009 0.372567 0.357225 0.00279629 -0.0277226 0.0312285 
135 10 1 0.189752 0.323315 0.366439 0.00470361 0.00661566 0.0051291 
136 9 1 0.18705 0.389496 0.400564 0.0175471 -5.12119e-05 0.0283768 
137 9 1 0.193166 0.348683 0.450065 0.0182654 0.00476028 -0.0142175 
138 9 1 0.201516 0.296945 0.355395 -0.0146188 -0.000345376 -0.00972049 
139 9 1 0.177964 0.335941 0.329096 0.0096264 -0.0167211 0.00834282 
140 9 1 0.168696 0.309028 0.386391 0.0247005 0.0198883 -0.00905062 
1 1 1 0.558898 0.38305 0.491024 -0.000603093 -0.00751666 0.00334486 
2 2 1 0.588994 0.385253 0.492526 -0.0212575 0.0161798 0.00621213 
3 3 1 0.589676 0.440216 0.495087 0.00798745 -0.00848819 0.00158972 
4 3 1 0.566838 0.44603 0.538464 0.00143681 0.00425874 0.00577256 
5 3 1 0.54212 0.424289 0.500942 -0.000205685 -0.00106601 -0.00349623 
6 4 1 0.598664 0.378738 0.43782 0.00122479 -0.010251 0.00456612 
7 2 1 0.567524 0.500318 0.529533 -0.00307575 -0.00168036 0.00658535 
8 3 1 0.614327 0.461577 0.529988 0.00014714 -0.0106552 0.00392534 
9 1 1 0.596447 0.506205 0.525928 0.00848404 -0.000781779 -0.00184711 
10 3 1 0.638918 0.475921 0.488559 0.00632352 0.00161484 0.000743801 
11 3 1 0.647934 0.43383 0.467688 -0.00993075 0.0120178 0.0102705 
12 5 1 0.665411 0.464502 0.556458 -0.00226812 0.00230092 -0.00283666 
13 3 1 0.679979 0.438289 0.463873 0.0119649 0.00324145 -0.00805916 
14 6 1 0.648465 0.407994 0.502833 0.017407 0.00140835 0.000322938 
15 3 1 0.688994 0.431432 0.529177 0.0104584 -0.00791908 0.000792976 
16 6 1 0.680869 0.40691 0.44405 0.0449385 -0.0334424 0.0462776 
17 5 1 0.815286 0.474516 0.578602 -0.00159372 0.00455954 0.0138564 
18 3 1 0.793602 0.421741 0.562932 -0.00402826 0.0101481 -0.00610085 
19 3 1 0.835147 0.479857 0.526758 0.00540441 0.00451925 -0.0109133 
20 3 1 0.810486 0.415058 0.516713 0.00557843 -0.00756364 -0.00442384 
21 3 1 0.817331 0.450287 0.484202 -0.00608872 -0.000189796 -0.000515458 
22 6 1 0.795248 0.397886 0.485207 0.0214483 -0.0286003 -0.00779738 
23 6 1 0.832632 0.439891 0.453442 -0.011987 0.0263364 -0.0161741 
50 7 1 0.542604 0.357067 0.451473 0.00867285 -0.00447488 -0.000944003 
51 8 1 0.525388 0.325842 0.488446 -0.00291356 -0.00300154 -0.00124678 
52 9 1 0.554359 0.340223 0.414331 0.00380027 -0.057878 -0.00194446 
53 9 1 0.52118 0.368988 0.427691 -0.0629092 0.0203276 0.0328237 
54 7 1 0.511347 0.296259 0.446173 0.00543402 0.00805163 0.00915255 
55 7 1 0.552151 0.296948 0.510755 -0.00818505 -0.00649387 -0.00692228 
56 9 1 0.506643 0.340937 0.512402 0.0284199 -0.000939684 -0.00421157 
57 10 1 0.5427 0.269439 0.554604 -0.00528617 -0.00397614 0.00259894 
58 9 1 0.57117 0.3151 0.526497 0.00180274 0.00870021 0.00477432 
59 9 1 0.565665 0.277462 0.478176 -0.0442486 0.00347144 -0.00303009 
60 9 1 0.558834 0.257139 0.582047 0.000383364 0.021522 -0.0143687 
61 9 1 0.52867 0.242801 0.540729 0.0110893 0.00400709 -0.0138078 
62 9 1 0.527759 0.289663 0.587064 0.0286139 -0.00708262 -0.0227208 
64 9 1 0.521798 0.264788 0.436171 0.00554546 -0.00628785 0.00312876 
65 9 1 0.508722 0.312355 0.401358 0.0154249 0.0232772 -0.00726044 
75 3 1 0.517619 0.412669 0.538464 0.0120304 -0.00322427 0.014728 
76 3 1 0.506074 0.453793 0.562605 0.011264 -0.0165672 0.00348836 
78 6 1 0.512573 0.476041 0.522677 -0.0130872 -0.0296813 -0.041565 
109 3 1 0.716401 0.465365 0.523459 0.012817 -0.00360461 0.00541516 
110 3 1 0.723058 0.464638 0.584376 0.0158489 0.00116188 -0.0199716 
111 3 1 0.754213 0.464781 0.592165 -0.001727 0.0175605 0.0191472 
112 6 1 0.713002 0.441916 0.617833 -0.0424977 -0.079975 -0.050344 
113 3 1 0.767043 0.456281 0.535726 -0.0143014 -0.00611486 0.00688485 
114 6 1 0.761247 0.496869 0.611229 0.036458 0.0358405 0.0278868 
115 5 1 0.742021 0.406942 0.526443 -0.00220369 -0.00704237 -0.00441695 
116 7 1 0.858511 0.43804 0.541381 -0.0085694 -0.00724948 -0.0116085 
117 7 1 0.88765 0.457734 0.529564 0.00527885 -0.00411167 -0.00571608 
118 9 1 0.860486 0.403187 0.546971 -0.0257367 -0.0211238 -0.0471919 
119 9 1 0.860742 0.447097 0.591995 -0.00481351 0.0295013 0.0162504 
120 7 1 0.896737 0.446535 0.472478 -0.000328109 0.00194522 -0.0011685 
121 9 1 0.902884 0.443916 0.560462 0.0204954 0.018133 -0.000586942 
122 9 1 0.887365 0.49318 0.537337 -0.0260574 -0.00112495 0.00274267 
123 7 1 0.928948 0.449337 0.465441 -0.00380253 -0.00366509 -0.00259055 
124 9 1 0.886983 0.469168 0.4439 0.00337526 -0.00118522 -0.0029947 
125 9 1 0.888056 0.415372 0.456489 0.0304387 0.0148237 -0.00208512 
126 7 1 0.934772 0.44814 0.40231 0.00606967 -0.000845309 0.00659046 
127 9 1 0.941027 0.424787 0.486845 -0.0321733 0.0056313 0.001822 
129 10 1 0.964409 0.458808 0.385392 0.0019344 0.00421557 -0.00269873 
130 9 1 0.918866 0.46493 0.374877 0.000700554 0.0189239 0.00760351 
131 9 1 0.931376 0.412197 0.39053 0.00419932 -0.027279 -0.000457309 
132 9 1 0.971115 0.49084 0.389081 -0.00241623 -0.0160436 -0.00625441 
133 9 1 0.97502 0.442921 0.347531 -0.0175953 0.010898 0.0190158 
134 9 1 0.979969 0.44248 0.420702 -0.00529177 -0.00731532 -0.00564984 
24 4 1 0.560325 0.508323 0.586433 -0.00431274 0.0126282 -0.0082901 
25 7 1 0.611266 0.534126 0.573959 0.00381567 -0.000957381 -0.0107141 
26 8 1 0.624417 0.567294 0.537652 -0.00589964 0.0117789 -0.00624098 
27 9 1 0.62841 0.527006 0.604 0.0283118 -0.0250719 0.00253062 
28 9 1 0.594024 0.555299 0.597937 0.00247715 0.0347571 0.0374771 
29 7 1 0.605501 0.596001 0.502298 0.00493396 0.00393233 0.000496122 
30 7 1 0.638682 0.601752 0.581434 0.00187811 0.00120606 -0.00615599 
31 9 1 0.644507 0.556239 0.516089 -0.00613935 -0.0303612 0.00746056 
32 10 1 0.579743 0.606709 0.533645 -0.00575177 0.00443581 -0.00200485 
33 9 1 0.60173 0.583752 0.460338 0.00355668 -0.00318484 0.0105624 
34 9 1 0.618831 0.625786 0.494665 -0.0296503 -0.0175064 -0.000295288 
35 9 1 0.580835 0.621515 0.572829 -0.00451555 0.0114163 0.00934086 
36 9 1 0.560763 0.585248 0.526007 -0.0242087 -0.0136623 -0.00459325 
37 9 1 0.571381 0.639113 0.508077 0.0162753 0.00992924 -0.0120886 
38 7 1 0.660618 0.625879 0.544091 -0.00569856 -0.0033181 0.00580237 
39 9 1 0.654125 0.586057 0.609281 -0.0180393 0.00550667 -0.00417593 
40 9 1 0.624051 0.628473 0.59845 0.016028 -0.0219029 -0.0186234 
41 7 1 0.659184 0.671994 0.556237 0.00413038 0.00106399 0.00110023 
42 9 1 0.665775 0.618646 0.498568 0.0164707 -0.00140649 1.29492e-06 
43 9 1 0.68493 0.618402 0.56307 0.0106559 -0.0096754 0.0112241 
44 10 1 0.676126 0.694146 0.511751 0.00200991 -0.000594467 0.00331781 
45 9 1 0.663437 0.682969 0.597918 0.0125848 0.00308249 0.000661913 
46 9 1 0.635618 0.680586 0.550867 -0.0214822 0.00523673 0.00614744 
47 9 1 0.698376 0.69957 0.521934 0.000767877 0.0161727 0.000580805 
48 9 1 0.667241 0.727902 0.50369 0.0169555 -0.0137479 0.0111909 
49 9 1 0.672673 0.678295 0.469012 -0.022545 0.0150985 0.00903511 
128 9 1 0.938375 0.480956 0.479991 -0.00769002 -0.0347282 0.00400862 
ITEM: TIMESTEP
400
ITEM: NUMBER OF ATOMS
140
ITEM: BOX BOUNDS pp pp pp
-30.0423 19.3855
-13.9633 19.6199
-12.419 13.2992
ITEM: ATOMS id type mol xs ys zs vx vy vz 
63 7 1 0.480008 0.306905 0.455083 0.00622663 -4.31547e-05 -0.00303685 
66 7 1 0.461805 0.276163 0.421827 -0.0026655 -0.000231525 0.0080811 
67 9 1 0.473592 0.338734 0.451253 0.0148011 -0.000755178 0.0010024 
68 9 1 0.476542 0.300208 0.501705 0.0131309 0.000591531 -0.0153394 
69 10 1 0.444814 0.251425 0.461734 7.04471e-05 4.55229e-05 -0.00280606 
70 9 1 0.470662 0.254579 0.388952 0.0079481 -0.0057135 0.0049357 
71 9 1 0.444632 0.297471 0.396414 -0.0112012 -0.0091549 -0.0123347 
72 9 1 0.45213 0.238672 0.499924 -0.00945452 -0.00171481 0.00142614 
73 9 1 0.427546 0.231654 0.445279 0.0231001 0.000570875 -0.0109185 
74 9 1 0.427122 0.27569 0.484006 0.00463919 0.00659249 0.00409683 
77 3 1 0.476846 0.449223 0.558667 -0.0119829 0.00179088 0.00416789 
79 3 1 0.464253 0.454661 0.500369 0.000676663 -0.00938552 0.00046656 
80 6 1 0.466385 0.48005 0.578612 -0.00520465 0.00689964 -0.0158364 
81 5 1 0.49106 0.411315 0.475836 -0.00785317 0.00808359 0.00142435 
82 3 1 0.439919 0.420781 0.498887 0.00265743 0.000746788 -0.012024 
83 5 1 0.413742 0.458378 0.530274 0.00314254 0.00338338 0.00209328 
84 3 1 0.384598 0.451207 0.480606 0.00434126 -0.00539753 0.00215598 
85 3 1 0.397893 0.416099 0.446314 -0.000942055 -0.00349818 -0.000560259 
86 3 1 0.428594 0.432931 0.439114 -0.0094494 -0.00466222 -0.00390304 
87 6 1 0.387386 0.419162 0.404232 0.0358501 0.039083 -0.00639772 
88 6 1 0.437119 0.402201 0.415545 0.00742721 -0.0116164 -0.0034233 
89 3 1 0.364996 0.4237 0.519376 0.00523809 -0.0018109 -0.00363706 
90 3 1 0.349311 0.45827 0.547416 -0.000350324 -0.00359064 -0.00167957 
91 3 1 0.319902 0.443906 0.550025 0.00606766 0.000542475 -0.0078902 
92 6 1 0.356227 0.449475 0.592893 -0.0115476 0.0108419 -0.00845352 
93 3 1 0.315248 0.40928 0.511946 -0.0090326 0.00157919 0.00691488 
94 6 1 0.308787 0.474278 0.532606 -0.00487527 -0.00615296 -0.00463543 
95 5 1 0.335664 0.438024 0.453964 -0.00598268 -0.0028516 -0.00192419 
96 7 1 0.28465 0.425131 0.482632 0.00626213 0.00404241 0.00309357 
97 7 1 0.273478 0.388408 0.450076 0.00236853 0.00060553 0.00131848 
98 9 1 0.282849 0.458059 0.472364 0.0127179 -0.00112372 0.00150041 
99 9 1 0.27035 0.422333 0.522304 0.0077029 -0.0131034 0.00809649 
100 7 1 0.244367 0.397047 0.433268 0.000229512 0.0106265 0.00268938 
101 9 1 0.277469 0.355754 0.465806 -0.00824718 0.00456326 0.0108157 
102 9 1 0.28803 0.387988 0.409576 -0.00238824 0.0158014 0.00319578 
103 7 1 0.232782 0.359483 0.403033 0.0025751 -0.000822753 0.00251103 
104 9 1 0.242078 0.424192 0.403373 0.0121628 -0.00637972 0.0069154 
105 9 1 0.228038 0.405158 0.467935 0.0276714 -0.00424718 -0.0245768 
106 7 1 0.200005 0.360422 0.411057 -0.000395761 -0.00388864 -0.00310381 
107 9 1 0.242101 0.328917 0.414355 -0.00216281 0.000807894 0.0091917 
108 9 1 0.238245 0.365713 0.356848 0.00492026 -0.00507259 0.00930241 
135 10 1 0.186746 0.336119 0.365651 -0.000981594 0.00184862 -6.41527e-05 
136 9 1 0.191367 0.393221 0.408123 -0.0227171 -0.0161602 -0.00269504 
137 9 1 0.193896 0.34922 0.454867 0.00216007 -0.00674665 -0.0103631 
138 9 1 0.199586 0.313234 0.347472 -0.00519171 -0.0130316 -1.57104e-05 
139 9 1 0.172494 0.355501 0.339625 -0.0106045 0.00236295 0.0128768 
140 9 1 0.168525 0.315211 0.387242 -0.00577514 -0.0035126 -0.0184858 
1 1 1 0.558059 0.381592 0.50979 0.00179776 -0.00914449 0.00566208 
2 2 1 0.588732 0.388109 0.523644 0.00498832 -0.0102464 -0.0110159 
3 3 1 0.590136 0.435104 0.496539 -0.0085281 -0.0078342 0.00675211 
4 3 1 0.564434 0.451766 0.533442 0.00399032 -0.00706234 0.00108328 
5 3 1 0.541585 0.422473 0.501864 -0.00323366 -0.0103565 -0.00635322 
6 4 1 0.602768 0.36556 0.480727 0.00789793 0.00482897 0.00189916 
7 2 1 0.565956 0.500068 0.498109 0.00220687 0.00229518 -0.00430945 
8 3 1 0.612435 0.462601 0.529858 -0.00447345 -0.00695037 0.0133934 
9 1 1 0.597044 0.505726 0.512974 0.00324495 0.00715875 -0.00946977 
10 3 1 0.637661 0.466193 0.48864 -0.0078461 0.00215563 -0.00884096 
11 3 1 0.650311 0.425972 0.486669 0.00607443 0.00687397 0.000468881 
12 5 1 0.663601 0.4821 0.554943 0.00019247 0.000749595 -0.000686742 
13 3 1 0.681708 0.434549 0.482675 0.00252916 -0.000560404 -8.40418e-06 
14 6 1 0.645771 0.413187 0.531292 0.0291604 -0.0105316 0.00734052 
15 3 1 0.688547 0.442349 0.54432 -0.00764354 0.00274018 0.00510224 
16 6 1 0.689371 0.399361 0.483518 -0.0065034 0.00991726 0.0318541 
17 5 1 0.818962 0.460115 0.584677 0.000216705 0.00595746 0.00262643 
18 3 1 0.794166 0.418203 0.555064 -0.00481506 0.0019066 -0.00523788 
19 3 1 0.838624 0.475698 0.528522 -0.00181917 -0.00526395 -0.00290833 
20 3 1 0.808851 0.414061 0.506794 -0.00450676 0.000311489 -0.0101275 
21 3 1 0.818986 0.453952 0.484453 -0.0062237 -0.00108837 0.00805482 
22 6 1 0.794421 0.403386 0.470681 -0.0063097 -0.0280555 -0.0251591 
23 6 1 0.834781 0.444 0.451421 0.00989448 -0.00524922 -0.0237097 
50 7 1 0.550296 0.353226 0.459404 0.00676485 -0.000790067 0.0103322 
51 8 1 0.530853 0.318855 0.485287 -0.00548133 -0.00222346 0.00201252 
52 9 1 0.56876 0.346892 0.433321 -0.00369136 -0.00568133 0.00589327 
53 9 1 0.536533 0.377635 0.430849 0.0173373 -0.00296356 0.0329515 
54 7 1 0.511226 0.298581 0.443783 0.000859438 0.00314602 -0.00515073 
55 7 1 0.555597 0.282266 0.496732 -0.00169755 -0.000284784 -0.00131141 
56 9 1 0.521479 0.323743 0.530235 0.00328446 0.0144295 -0.00303305 
57 10 1 0.543296 0.252237 0.536369 0.00226167 0.00144083 -0.00406163 
58 9 1 0.576656 0.294676 0.509957 -0.0260482 -0.00081527 -0.0107119 
59 9 1 0.561392 0.265631 0.453733 0.0126755 -0.00175284 -0.00261347 
60 9 1 0.549954 0.220642 0.539691 0.000595319 0.0105839 -0.0106822 
61 9 1 0.518555 0.255281 0.538163 0.0127435 0.0146967 -0.00332456 
62 9 1 0.547288 0.267296 0.582134 0.0171461 -0.00920448 -0.0188641 
64 9 1 0.515719 0.263328 0.43873 -0.00247541 0.00338046 0.0227033 
65 9 1 0.514448 0.309407 0.396589 0.011045 -0.00927479 0.010878 
75 3 1 0.519527 0.415907 0.545684 0.00973061 0.00930652 -0.00312414 
76 3 1 0.505872 0.457674 0.555129 0.0121286 0.0021258 0.010251 
78 6 1 0.510012 0.477953 0.514635 -0.00372981 -0.0329671 -0.0129597 
109 3 1 0.71572 0.474167 0.535662 -0.00471229 0.00412146 0.0028412 
110 3 1 0.728013 0.473778 0.593611 0.00372214 -0.00487908 -0.00988929 
111 3 1 0.75829 0.463539 0.593533 -0.0109114 -0.00139256 0.00370107 
112 6 1 0.713039 0.457192 0.622123 -0.0291788 0.0193014 -0.0372707 
113 3 1 0.769217 0.457195 0.536034 0.00100047 -0.0151419 -0.00354921 
114 6 1 0.772696 0.492412 0.606772 0.0380753 -0.0236831 0.0268868 
115 5 1 0.738698 0.414838 0.529854 0.00364314 0.000137061 0.00533827 
116 7 1 0.862166 0.436279 0.533129 0.000288996 0.00221055 0.00288286 
117 7 1 0.889739 0.457759 0.515887 -0.00496264 -0.00177798 -0.00201801 
118 9 1 0.863047 0.405095 0.511295 -0.00378791 -0.00562254 0.0157127 
119 9 1 0.866742 0.429416 0.581638 0.00859568 0.0129554 -0.0039427 
120 7 1 0.895754 0.454193 0.453662 0.000849818 0.00121814 -0.000220476 
121 9 1 0.908738 0.447904 0.541728 -0.000954965 -0.0261903 0.00161552 
122 9 1 0.890147 0.494737 0.526422 -0.0101112 0.00531591 0.0268305 
123 7 1 0.926688 0.439633 0.452349 0.00668286 -0.00090674 -0.00434896 
124 9 1 0.888073 0.482105 0.430958 0.00385673 -0.0143164 0.0121853 
125 9 1 0.882171 0.425634 0.435928 0.0104979 0.028088 -0.00400408 
126 7 1 0.938771 0.443734 0.394919 -0.00191496 -0.00235522 -0.001239 
127 9 1 0.9316 0.408289 0.47256 -0.000180717 0.0238248 -0.0105495 
129 10 1 0.967196 0.464759 0.398183 0.00157725 0.000924943 -0.000857559 
130 9 1 0.92362 0.456885 0.362823 0.00108621 0.00436933 -0.0072069 
131 9 1 0.941748 0.406635 0.380826 0.0167315 -0.000180423 0.000549589 
132 9 1 0.970722 0.491648 0.424033 -0.00205523 -0.000970933 -0.00708636 
133 9 1 0.976264 0.471704 0.357171 0.00493747 -0.00132564 0.0171918 
134 9 1 0.983961 0.439207 0.413608 0.00755317 -0.000106831 -0.010091 
24 4 1 0.551818 0.519157 0.541052 -0.0033668 0.00687493 0.00368007 
25 7 1 0.604742 0.535557 0.558189 0.00200846 -0.000169997 -0.00197468 
26 8 1 0.619938 0.570942 0.524569 0.00235506 0.000512909 -0.00351632 
27 9 1 0.620056 0.52366 0.5906 0.000296311 0.0150833 0.0162529 
28 9 1 0.585471 0.552658 0.582109 -0.00893344 0.0215411 0.0131419 
29 7 1 0.60036 0.600886 0.496697 -0.00119636 -0.00314663 0.000257878 
30 7 1 0.635506 0.59775 0.573624 -0.00213418 0.000754897 0.00357863 
31 9 1 0.637597 0.559435 0.495238 0.00704773 0.0343509 -0.000378386 
32 10 1 0.574076 0.611455 0.532048 -0.00183559 0.000786259 0.00253432 
33 9 1 0.593244 0.591231 0.453837 -0.00377621 0.00295026 -0.0260752 
34 9 1 0.613315 0.63423 0.496281 0.0298229 -0.00259653 -0.0107133 
35 9 1 0.576208 0.618933 0.57328 0.00346362 0.00465868 0.00363507 
36 9 1 0.553863 0.596449 0.514563 0.00930107 -0.00297397 0.01007 
37 9 1 0.569273 0.646538 0.514428 0.00845777 0.0130698 0.00877198 
38 7 1 0.659815 0.620824 0.54801 -0.000201115 -0.00190136 -0.00366468 
39 9 1 0.641056 0.577278 0.610103 0.00657834 0.00881534 -0.017268 
40 9 1 0.618234 0.621703 0.59289 -0.00426042 -0.0177405 -0.00228385 
41 7 1 0.66036 0.666824 0.565314 -8.6883e-05 0.00354554 0.000515498 
42 9 1 0.663895 0.613309 0.504225 0.00143237 -0.00969123 -0.000392586 
43 9 1 0.681615 0.606771 0.566819 -0.0185717 0.023901 -0.0052591 
44 10 1 0.681977 0.687568 0.52794 0.00315775 -0.00285558 0.0045895 
45 9 1 0.662125 0.672388 0.609577 0.00499852 0.00729021 0.0114594 
46 9 1 0.638593 0.682695 0.553575 -0.0280922 -0.0174429 -0.00516268 
47 9 1 0.688788 0.674974 0.489961 -0.0235429 -0.0236662 0.0116486 
48 9 1 0.700621 0.701685 0.54975 0.00735041 -0.00631579 -0.0188648 
49 9 1 0.671533 0.720616 0.513941 0.0186184 -0.00538816 0.0132814 
128 9 1 0.939451 0.464319 0.48108 -0.00526554 -0.0239563 -0.0106516 
ITEM: TIMESTEP
600
ITEM: NUMBER OF ATOMS
140
ITEM: BOX BOUNDS pp pp pp
-29.9456 19.2888
-13.8976 19.5542
-12.3687 13.2488
ITEM: ATOMS id type mol xs ys zs vx vy vz 
63 7 1 0.488452 0.311753 0.440306 0.00661825 -0.000225664 -0.000812925 
66 7 1 0.466677 0.277733 0.423859 0.00151803 0.00331628 -0.00201593 
67 9 1 0.490862 0.334935 0.406351 0.00207853 -0.0103554 0.0129774 
68 9 1 0.481442 0.331122 0.47907 0.00460441 0.00877522 -0.0179317 
69 10 1 0.452515 0.256878 0.470699 0.00450254 0.00159207 0.00184309 
70 9 1 0.477404 0.258071 0.390283 -0.0120985 0.0142987 -0.00861813 
71 9 1 0.448713 0.295999 0.396386 0.0085739 0.0121465 0.0167105 