ITEM: TIMESTEP
0
ITEM: NUMBER OF ATOMS
140
ITEM: BOX BOUNDS pp pp pp
-120.23 109.574
-104.091 109.748
-102.517 103.397
ITEM: ATOMS id type mol xs ys zs vx vy vz 
96 7 1 0.451288 0.489118 0.498623 0.000505342 0.00323146 0.00398947 
97 7 1 0.449971 0.48433 0.493266 -0.00399536 -0.0019131 -0.00384104 
98 9 1 0.449364 0.493719 0.497328 0.013133 -0.00833063 0.000587335 
100 7 1 0.443377 0.483678 0.492327 -0.00193581 -0.00290357 -0.00452433 
101 9 1 0.451821 0.479743 0.49476 0.00043278 0.0106804 0.0103115 
102 9 1 0.452004 0.485783 0.4886 0.00613814 -0.0153116 0.00381352 
103 7 1 0.441862 0.478318 0.487682 0.00147443 0.00305643 0.00369337 
104 9 1 0.441578 0.488169 0.490478 0.00425333 0.00363242 -0.00158604 
105 9 1 0.441337 0.482627 0.497103 -0.00183212 -0.0126619 -0.0100505 
106 7 1 0.435242 0.477717 0.486938 0.00262897 0.00378263 0.00228289 
107 9 1 0.443623 0.473906 0.489763 0.00194722 -0.0143885 0.00397282 
108 9 1 0.443881 0.479101 0.482839 -0.0152665 0.00899014 -0.000691067 
135 10 1 0.433599 0.471897 0.483068 -0.00411613 -0.000318515 0.00263851 
136 9 1 0.433502 0.481952 0.484475 0.00958317 0.0119151 0.0110033 
137 9 1 0.433183 0.477327 0.491807 -0.0123431 -0.00548583 -0.00211745 
138 9 1 0.435537 0.472042 0.478134 0.0143655 -0.0119092 0.0127831 
139 9 1 0.42879 0.471614 0.482627 0.0129014 0.00306029 -0.00356339 
140 9 1 0.435154 0.467642 0.48564 -0.0151129 -0.010993 -0.00763757 
63 7 1 0.498109 0.466201 0.496367 -0.00302009 0.000722838 0.00374927 
66 7 1 0.49453 0.462262 0.491587 -0.0013275 -9.58984e-05 0.00315943 
67 9 1 0.495154 0.469526 0.498897 -0.00603916 0.00302676 0.00396298 
69 10 1 0.48975 0.458627 0.495084 -0.00337545 0.00276569 -0.00205912 
70 9 1 0.497435 0.458893 0.489054 -0.0107155 -0.000311426 -0.00450295 
71 9 1 0.492473 0.465356 0.487902 -0.00529453 -0.0149009 -0.0105173 
72 9 1 0.491677 0.455402 0.498727 -0.000314304 -0.0126902 -0.00850901 
73 9 1 0.487242 0.455828 0.491508 -0.00667443 -0.013219 -0.0120637 
74 9 1 0.486726 0.461897 0.497571 -0.00448356 0.00338061 -0.0139339 
81 5 1 0.4977 0.487159 0.496761 -0.0020901 0.00129812 0.00167875 
82 3 1 0.48593 0.489252 0.499179 0.00057737 0.000509978 0.00176464 
84 3 1 0.474932 0.48912 0.498945 0.00300074 0.00179156 -0.0038668 
85 3 1 0.477457 0.485357 0.494148 0.0031204 -1.95986e-05 -0.00130073 
86 3 1 0.483649 0.485431 0.49428 0.00373246 0.0014488 -0.00154784 
87 6 1 0.474974 0.482655 0.490677 -0.0144696 0.0137069 -0.0155105 
88 6 1 0.486304 0.482782 0.490923 0.00058718 0.00392413 0.0147964 
93 3 1 0.457671 0.490029 0.499878 -0.0033378 0.0012346 0.00158698 
95 5 1 0.463263 0.486812 0.495984 0.000841151 -0.000316452 -8.23357e-05 
99 9 1 0.449258 0.487456 0.503211 0.00636143 -0.00656773 -0.00506187 
68 9 1 0.499946 0.463015 0.500014 0.00975381 -0.00731548 -0.0079109 
77 3 1 0.494388 0.494039 0.505559 -0.00381066 -0.00449997 0.00440098 
79 3 1 0.492109 0.490295 0.50063 0.00280236 0.00420529 0.000918355 
80 6 1 0.491737 0.49668 0.508925 -0.000148116 -0.0117006 -0.00222858 
83 5 1 0.48033 0.492356 0.503108 0.0026365 0.00171397 -0.00228318 
89 3 1 0.468686 0.490067 0.500099 -0.000846536 0.00398487 0.000418319 
90 3 1 0.466187 0.493898 0.50485 -0.00277862 -0.00363502 0.000322789 
91 3 1 0.46 0.493882 0.504715 0.000195233 0.0028934 0.00271368 
92 6 1 0.468686 0.496623 0.50829 -0.00766851 0.000417311 -0.00393135 
94 6 1 0.457359 0.49658 0.508044 -0.013157 -0.00911535 0.0108192 
1 1 1 0.511997 0.484622 0.496142 -0.00389889 0.00285366 -0.00331995 
2 2 1 0.517926 0.485384 0.496365 0.00421968 0.000381512 0.00267829 
5 3 1 0.509545 0.489201 0.499949 -0.00183296 -0.00230834 -0.00103059 
6 4 1 0.521357 0.481994 0.493573 0.00285052 0.00221253 -0.000638388 
11 3 1 0.532822 0.488999 0.497282 -0.00135723 -0.00335148 0.0044516 
13 3 1 0.538989 0.488731 0.497791 0.00226974 -0.00407007 -0.0042004 
14 6 1 0.530534 0.486537 0.493529 0.0100858 -0.0120871 0.00508438 
16 6 1 0.541686 0.486042 0.494511 0.0128031 -0.000642476 0.0158029 
50 7 1 0.509106 0.479585 0.492483 0.00368634 -0.00167499 -0.000389805 
51 8 1 0.506381 0.474567 0.49704 0.000361255 -0.00104296 -0.00330924 
52 9 1 0.512293 0.477144 0.489303 -0.00597339 -0.00213084 0.00309112 
53 9 1 0.505881 0.481723 0.489148 0.0151553 -0.000830765 -0.00762573 
54 7 1 0.502821 0.469965 0.49275 -0.00286559 -0.00388214 0.00165811 
59 9 1 0.514712 0.469513 0.497858 0.0133077 0.00952253 -0.000304576 
64 9 1 0.505801 0.466887 0.489944 0.010796 -0.00493958 0.00905159 
65 9 1 0.500312 0.472819 0.489198 -0.00665596 0.011682 -0.00323999 
22 6 1 0.564846 0.485024 0.496707 -0.00996385 0.00487969 -0.0115895 
23 6 1 0.576096 0.484483 0.498052 0.0001083 0.0144944 -0.0121546 
120 7 1 0.586537 0.492023 0.497662 0.000173173 -0.000195677 -0.000936344 
124 9 1 0.582597 0.492438 0.494568 -0.00981824 0.00892955 -0.00363456 
125 9 1 0.587552 0.486988 0.498414 -0.00559664 -0.0159007 0.00308287 
130 9 1 0.590202 0.493537 0.484034 0.00783799 -0.00194746 0.00757024 
123 7 1 0.591849 0.494966 0.494345 -0.00369452 -0.00107379 0.00238004 
126 7 1 0.593222 0.491783 0.487846 0.00119267 0.00127526 -0.00447522 
127 9 1 0.595574 0.494227 0.497701 -0.00603777 -0.00533251 0.00463696 
129 10 1 0.599568 0.492869 0.485953 -0.00108649 -0.00303579 -0.00244053 
131 9 1 0.592663 0.48664 0.488268 0.00342375 -0.0101821 0.00792734 
132 9 1 0.60059 0.497926 0.485597 0.00839442 -0.00998704 -0.0126802 
133 9 1 0.60051 0.490548 0.48125 0.00843811 -0.00538538 0.00452962 
134 9 1 0.602428 0.490715 0.489703 0.0147141 0.00909052 0.00484502 
3 3 1 0.519341 0.490372 0.500271 0.000602343 -0.0025854 0.00260861 
4 3 1 0.51402 0.492801 0.502595 -0.00313088 -0.00468576 -0.00229313 
7 2 1 0.515453 0.497787 0.50649 0.00411149 0.00197833 0.00082398 
8 3 1 0.523818 0.493925 0.502948 0.00416376 -0.00197061 0.00393523 
9 1 1 0.521381 0.498541 0.506732 0.00335754 -0.000864375 -0.000189788 
10 3 1 0.530177 0.492782 0.502021 0.00250801 0.00215442 0.000555127 
12 5 1 0.535565 0.495533 0.506598 -0.00226134 -0.00183118 -0.000351739 
15 3 1 0.541185 0.492259 0.502933 0.00315858 -0.00164199 0.00286333 
55 7 1 0.511369 0.471576 0.501123 -0.00311417 0.000389122 0.001904 
56 9 1 0.503316 0.476903 0.500394 0.00810258 0.0030722 0.00612261 
57 10 1 0.509649 0.466635 0.506099 0.00281539 0.00257382 -0.000479146 
58 9 1 0.51347 0.475387 0.503944 -0.0108944 0.00694353 -0.00412239 
60 9 1 0.513517 0.465437 0.509084 -0.00801347 0.00910032 0.0108529 
61 9 1 0.508339 0.462237 0.503699 -0.000738964 -0.0109909 -0.00506153 
62 9 1 0.50618 0.468425 0.509363 -0.00169836 0.0143927 -0.00793159 
75 3 1 0.503171 0.490222 0.501014 0.00159631 0.00183173 0.000181956 
76 3 1 0.500574 0.494017 0.505775 0.0046643 0.000355457 -0.00321367 
78 6 1 0.502905 0.496632 0.509375 4.84224e-05 -0.00827263 -0.00835327 
17 5 1 0.569633 0.493877 0.510063 0.000412089 0.000998734 -0.000393064 
18 3 1 0.564462 0.491156 0.505237 -0.00187588 0.00243861 -0.00261628 
19 3 1 0.57537 0.490686 0.506516 -0.00081773 0.000969546 -0.00445743 
20 3 1 0.567172 0.48746 0.500513 0.00334213 0.00394031 -0.00391132 
21 3 1 0.573325 0.487189 0.501233 -0.000728918 -0.004608 -0.000649214 
109 3 1 0.5473 0.492944 0.504814 0.000379299 -0.00108731 -0.00424718 
110 3 1 0.549446 0.496489 0.510001 -0.00184153 0.000766602 0.00396296 
111 3 1 0.555597 0.496185 0.510613 0.000870067 0.00233386 0.00151503 
112 6 1 0.546723 0.499192 0.513241 0.000816339 -0.0154972 -0.00574844 
113 3 1 0.558224 0.49241 0.505899 0.00096847 0.0016828 -0.00276878 
114 6 1 0.557983 0.498638 0.51436 0.00176511 0.00261788 -0.014627 
115 5 1 0.552965 0.489625 0.501212 0.000524012 -0.00261948 3.41239e-05 
116 7 1 0.581503 0.491339 0.508847 -0.000343138 -0.000918986 0.0029762 
117 7 1 0.585528 0.495057 0.504322 -0.00185712 -0.00387733 -0.000247979 
118 9 1 0.583331 0.48661 0.509782 0.0109925 -0.00215331 0.00630142 
119 9 1 0.581423 0.493889 0.513549 4.5936e-05 0.0133964 0.00100227 
121 9 1 0.589764 0.495306 0.50692 -0.010546 -0.00713782 -0.00445002 
122 9 1 0.583903 0.499916 0.503664 -0.00406577 0.013185 0.000920304 
33 9 1 0.520391 0.507644 0.498437 0.0153397 -0.0108511 -0.00392583 
34 9 1 0.524991 0.514086 0.497311 -0.0147128 -0.012271 -0.00748206 
46 9 1 0.528838 0.522566 0.49982 -0.00962117 -0.0103508 -0.00209067 
48 9 1 0.534269 0.532358 0.499028 -0.000835237 -0.010876 -0.0098167 
49 9 1 0.538851 0.525829 0.496857 0.00288144 0.0130772 -0.00168716 
128 9 1 0.591304 0.500093 0.493599 0.0102891 0.0105769 0.0150833 
24 4 1 0.512027 0.50118 0.509304 -0.00215267 -0.00137865 0.0024753 
25 7 1 0.524299 0.503568 0.510376 0.00368592 0.00060579 0.0035421 
26 8 1 0.527208 0.50844 0.505784 -0.00416189 0.00262567 -0.00223348 
27 9 1 0.527454 0.501448 0.513803 -0.00505681 0.0142986 -0.00248109 
28 9 1 0.521124 0.506082 0.51349 -0.0053769 -0.00327792 0.0152957 
29 7 1 0.522698 0.511412 0.501112 0.00364181 0.0036654 -0.00085594 
30 7 1 0.530798 0.513096 0.51 -0.00267624 -0.00180009 0.00209675 
31 9 1 0.530339 0.50595 0.502629 -0.00932771 0.00387377 -0.00657124 
32 10 1 0.518159 0.515603 0.504386 0.00242387 0.00366827 0.00128449 
35 9 1 0.515509 0.51296 0.507939 -0.00731629 -0.0131588 0.015889 
36 9 1 0.515173 0.517499 0.500633 -0.0113426 -0.00530838 -0.00234835 
37 9 1 0.520253 0.519599 0.506892 0.00446857 0.00417793 -0.00293636 
38 7 1 0.534875 0.517732 0.506481 -0.00283215 -0.00254405 -0.00113758 
39 9 1 0.533775 0.510095 0.512913 -0.0095388 0.00967527 -0.00327044 
40 9 1 0.528004 0.515643 0.513524 -0.00939858 -0.0133013 0.000437421 
41 7 1 0.531944 0.523631 0.503728 -0.00173587 0.00265161 0.00158841 
42 9 1 0.537436 0.515232 0.502707 0.00600759 0.0114285 -0.012355 
43 9 1 0.537987 0.519447 0.510222 -0.0140534 -0.0031283 -0.00834652 
44 10 1 0.536468 0.528104 0.500913 -0.00109547 0.00236 -0.000256718 
45 9 1 0.529573 0.526076 0.50769 0.0116907 -0.00707836 0.0111884 
47 9 1 0.539628 0.529538 0.504715 -0.0114883 -0.0117548 0.00647505 
ITEM: TIMESTEP
200
ITEM: NUMBER OF ATOMS
140
ITEM: BOX BOUNDS pp pp pp
-119.205 108.549
-103.137 108.794
-101.598 102.479
ITEM: ATOMS id type mol xs ys zs vx vy vz 
96 7 1 0.454098 0.488791 0.496519 -0.0088003 -0.00525211 0.00468933 
97 7 1 0.450873 0.482625 0.495255 -0.00444204 -0.00812609 0.000432501 
98 9 1 0.456895 0.491609 0.492687 0.0119546 0.0200814 0.0245013 
100 7 1 0.444758 0.484147 0.49164 0.00366714 0.00382393 -0.00445099 
101 9 1 0.450403 0.479348 0.49978 0.004016 -0.00501125 0.00617447 
102 9 1 0.454178 0.480105 0.491302 0.00470312 0.00491107 0.003585 
103 7 1 0.441967 0.477755 0.488871 -0.00139005 0.00542679 0.00863599 
104 9 1 0.445268 0.488539 0.488207 -0.0116219 -0.00764771 0.00512199 
105 9 1 0.44129 0.486491 0.495701 0.0283401 -0.00465791 -0.0162456 
106 7 1 0.434965 0.478461 0.487309 0.0066111 -0.00224834 -0.00432743 
107 9 1 0.44328 0.473048 0.491546 0.0119149 0.0187469 -0.0160187 
108 9 1 0.444097 0.477066 0.483163 -0.00731921 -0.0124881 0.0453348 
135 10 1 0.432746 0.472447 0.483151 0.00163303 0.00305422 0.00251122 
136 9 1 0.433321 0.483331 0.485364 0.0104373 -0.00409729 0.0164032 
137 9 1 0.43239 0.478105 0.492564 0.0168978 -0.00880107 -0.00963157 
138 9 1 0.435352 0.470277 0.479104 -0.0195788 -0.0135311 -0.0180133 
139 9 1 0.427585 0.471208 0.482476 0.00664109 0.0127394 0.0103311 
140 9 1 0.433487 0.468278 0.487404 0.00187598 0.0123274 0.00272188 
63 7 1 0.495927 0.467024 0.495678 0.00411638 -0.00521822 -0.00132989 
66 7 1 0.492967 0.461814 0.490996 0.00191409 0.00204045 -0.000258955 
67 9 1 0.493234 0.471436 0.496808 0.0122798 -0.0230065 -0.0223603 
69 10 1 0.487205 0.459091 0.494389 0.00685077 0.0122488 0.00363972 
70 9 1 0.49621 0.458126 0.488872 -0.0035792 0.00268828 -0.00630551 
71 9 1 0.491205 0.464603 0.48618 -0.00733968 -0.00425559 0.00442767 
72 9 1 0.487627 0.45707 0.499649 0.00815183 -0.00628067 0.000466759 
73 9 1 0.483705 0.4556 0.49175 0.0111403 0.0130953 0.0216926 
74 9 1 0.483966 0.463677 0.495658 -0.0138864 0.0289467 -0.0124257 
81 5 1 0.498005 0.487268 0.496448 -0.00096733 -0.00591195 -0.00718816 
82 3 1 0.486858 0.488073 0.499227 -0.0070772 -0.0144685 -0.0126295 
95 5 1 0.465166 0.485588 0.496521 0.00512453 -0.000119478 -0.00189191 
85 3 1 0.478668 0.489956 0.490946 0.000243361 -0.000355586 -0.00629673 
86 3 1 0.48595 0.490444 0.491446 0.00373592 -0.00511581 0.00509273 
87 6 1 0.478505 0.495944 0.490451 -0.00750084 0.0109077 -0.0440111 
88 6 1 0.48678 0.484433 0.489837 0.0368861 0.00186829 -0.029095 
99 9 1 0.450944 0.49265 0.499439 -0.0224359 0.0297448 -0.0293587 
84 3 1 0.475712 0.489177 0.498787 0.00771796 0.00558647 -0.00250784 
94 6 1 0.457737 0.494552 0.509823 -0.00372079 -0.0354797 -0.00125354 
68 9 1 0.496632 0.464567 0.500946 0.012951 0.0165459 -0.0174913 
77 3 1 0.49436 0.490749 0.5079 -0.0049651 -0.000310842 0.00542762 
93 3 1 0.458857 0.48669 0.503282 -0.00775629 -0.00155219 0.000689701 
80 6 1 0.493902 0.484906 0.508773 -0.0138315 0.0032081 0.107969 
83 5 1 0.48113 0.494699 0.50259 -0.00847947 0.0124205 0.00814602 
91 3 1 0.460503 0.493344 0.505088 0.00951661 -0.00114169 0.00608107 
90 3 1 0.467244 0.493882 0.505448 0.00242709 0.0030157 -0.0216435 
92 6 1 0.468108 0.49829 0.508201 0.0393839 -0.0597207 0.0944276 
79 3 1 0.492156 0.492978 0.501093 -0.000244882 0.00709864 0.0153973 
89 3 1 0.470125 0.49412 0.498646 -0.00653116 -0.00352188 0.000177667 
1 1 1 0.512879 0.481346 0.499675 -0.00237126 -0.000376894 0.00491688 
2 2 1 0.519086 0.481765 0.500196 -0.00656005 0.0239813 0.00586386 
5 3 1 0.509074 0.487756 0.499992 0.00514509 -0.00565976 0.000391181 
6 4 1 0.521245 0.480978 0.493261 -0.00344773 -0.00631635 0.0132468 
11 3 1 0.532259 0.489896 0.496349 0.00773027 0.017864 -0.00367023 
13 3 1 0.538973 0.491108 0.49614 -0.00450529 -0.00345383 -0.0170061 
128 9 1 0.59543 0.497998 0.496927 -0.0123444 -0.035216 0.00192236 
16 6 1 0.541459 0.486631 0.494096 0.0432965 0.00478639 0.0469924 
50 7 1 0.509825 0.477456 0.493572 0.00613347 0.000319171 -0.00207479 
51 8 1 0.505508 0.472552 0.497942 -0.00251805 -0.00492383 -0.000577243 
52 9 1 0.512363 0.474177 0.489641 -0.00614737 -0.0557762 -0.0233795 
53 9 1 0.506043 0.479728 0.490244 -0.0378118 0.0165565 0.00788095 
54 7 1 0.502384 0.468248 0.4928 0.00596141 0.00361964 0.00426071 
59 9 1 0.513897 0.465156 0.496969 -0.0348172 0.00951177 -0.00208081 
64 9 1 0.505078 0.464034 0.490066 0.0159932 -0.000756104 -0.00275823 
65 9 1 0.501241 0.471996 0.487865 0.0221458 0.0188229 -0.000229176 
10 3 1 0.52959 0.495954 0.498237 0.0127182 0.00121892 0.00265493 
23 6 1 0.573096 0.488669 0.493849 -0.0375921 0.0524296 0.0077357 
120 7 1 0.587157 0.49116 0.497767 0.00170989 0.000300212 0.00451041 
124 9 1 0.584057 0.493181 0.493296 0.0140738 0.0184037 -0.0266585 
125 9 1 0.585194 0.485758 0.497245 0.0251325 -0.0271807 0.0113237 
130 9 1 0.590208 0.493826 0.485034 0.00631498 0.0188443 0.0117974 
123 7 1 0.593644 0.492689 0.495855 -0.00257756 -0.00234836 -0.000927054 
126 7 1 0.594109 0.49147 0.488096 0.00903723 0.0017758 0.00193846 
127 9 1 0.597004 0.489495 0.498564 -0.0133032 0.0207736 0.00268822 
129 10 1 0.600225 0.493365 0.485142 -0.000746572 0.00177193 -0.00173061 
131 9 1 0.593108 0.485885 0.487104 0.00738941 -0.0102172 -0.00516352 
132 9 1 0.60195 0.497904 0.486954 0.00411685 -0.00496665 -0.00544045 
133 9 1 0.601241 0.492886 0.479558 -0.0217315 -0.0149051 0.0275487 
134 9 1 0.604175 0.489805 0.487372 -0.00387253 -0.00727989 -0.0175807 
3 3 1 0.519572 0.490231 0.4995 0.0253633 -0.0164797 0.00979059 
20 3 1 0.565472 0.486569 0.500088 0.00335506 0.00932051 0.00863733 
22 6 1 0.565823 0.480604 0.500386 -0.0489922 -0.0107997 0.00638813 
14 6 1 0.530587 0.484948 0.499145 -0.0175248 0.00760986 -0.00332242 
117 7 1 0.585278 0.49481 0.504197 0.00947926 -8.26712e-05 0.000701251 
4 3 1 0.514277 0.491393 0.504749 -0.0057243 0.00164528 -0.0145942 
116 7 1 0.579495 0.492092 0.507573 -0.00673039 0.00392401 0.000289553 
8 3 1 0.524435 0.494399 0.503829 0.00376858 -0.00813741 0.00164899 
115 5 1 0.552501 0.486372 0.502154 0.00643334 -0.00546941 -0.00673523 
119 9 1 0.57913 0.495887 0.512137 0.0144569 0.0226694 0.019559 
12 5 1 0.534916 0.494411 0.50732 -0.00913546 0.00454741 0.00288729 
15 3 1 0.540863 0.48854 0.504009 0.00386211 0.00823498 0.0113616 
55 7 1 0.510979 0.467799 0.501207 -0.00468434 -0.00163244 -0.00904213 
56 9 1 0.501898 0.474108 0.502129 0.0212819 0.0023411 -0.0211316 
57 10 1 0.508342 0.463018 0.506046 -0.0097235 -0.00814446 0.00210978 
58 9 1 0.514982 0.47014 0.503958 -0.000808426 0.00757486 0.00856106 
60 9 1 0.511702 0.460739 0.509552 0.000977443 0.00835448 -0.012274 
61 9 1 0.505478 0.459002 0.503619 0.0221445 -0.00937389 -0.0066671 
62 9 1 0.504946 0.466064 0.510002 0.0301012 -0.00259126 -0.0137671 
75 3 1 0.503922 0.485791 0.505144 -0.0216986 -0.000535611 -0.00736425 
76 3 1 0.501406 0.491633 0.507858 0.00369986 0.00184322 0.0113652 
78 6 1 0.502167 0.496177 0.50416 -0.0749528 0.00750771 0.0144792 
17 5 1 0.56848 0.495575 0.508473 0.00145143 -0.000388619 0.00256244 
18 3 1 0.563383 0.487822 0.506873 -0.00952279 0.00645024 -0.00472508 
19 3 1 0.573674 0.49489 0.501305 -0.00834262 -0.00455046 -0.0138301 
118 9 1 0.57946 0.487308 0.510176 0.00461108 -0.0117425 0.00329844 
114 6 1 0.555556 0.49965 0.513444 0.000342284 0.0368376 -0.0590385 
109 3 1 0.546262 0.494402 0.504071 0.0141249 -0.00447099 -0.0145237 
110 3 1 0.548012 0.494271 0.510974 0.0107539 -0.002684 -0.0045315 
111 3 1 0.554941 0.494171 0.511624 -0.00218171 -0.00977972 0.019057 
112 6 1 0.5471 0.488942 0.513333 0.0171799 0.0189271 0.0487123 
113 3 1 0.557824 0.494146 0.504378 -0.0188663 -0.00175962 -0.00171955 
121 9 1 0.589266 0.49478 0.507981 0.0460931 0.0130981 -0.0198692 
21 3 1 0.572518 0.487366 0.500225 0.00483621 -0.00946179 -0.00327183 
33 9 1 0.522484 0.513972 0.494763 -0.0085664 -0.00219854 0.00467573 
34 9 1 0.526628 0.520245 0.498724 -0.0170404 -0.0268778 -0.00141037 
49 9 1 0.53383 0.529214 0.49746 -0.0109002 0.0153578 0.0147317 
24 4 1 0.511598 0.50208 0.509964 -0.0115292 0.0100564 -0.00328088 
25 7 1 0.523151 0.505674 0.509165 -0.0112788 -0.00895623 -0.0198481 
26 8 1 0.526666 0.510596 0.504327 -0.00743865 0.00913397 -0.00672398 
27 9 1 0.526818 0.503567 0.512585 0.035013 0.0149493 0.0143615 
28 9 1 0.520185 0.510002 0.512371 0.029501 0.00471274 0.0495145 
29 7 1 0.523478 0.515835 0.500042 0.00327691 -0.00148663 -0.00172994 
30 7 1 0.529859 0.515542 0.510482 0.00474215 -2.22163e-05 -0.00946045 
31 9 1 0.53133 0.508921 0.502364 -0.00714456 -0.0297513 0.0161441 
32 10 1 0.517811 0.518009 0.503755 -0.00457628 0.00650139 -0.000672518 
35 9 1 0.517842 0.522348 0.506777 -0.00756879 0.0222137 -0.00264689 
36 9 1 0.514017 0.51413 0.504525 -0.00195473 -0.0123801 -0.000159146 
37 9 1 0.515064 0.520815 0.498569 0.00914414 0.00396598 -0.0203747 
38 7 1 0.534987 0.519426 0.506637 -0.00384692 -0.00486607 0.00452592 
39 9 1 0.532472 0.512404 0.514203 -0.0159007 0.02389 0.000952157 
40 9 1 0.5266 0.519419 0.513243 0.0170449 -0.0277926 -0.0155672 
41 7 1 0.534408 0.526896 0.507925 0.00193499 0.00124718 0.00397207 
42 9 1 0.537095 0.517651 0.501476 0.018003 -0.0221634 0.0273831 
43 9 1 0.539743 0.518307 0.510261 -0.016667 -0.00724737 0.00688261 
44 10 1 0.537536 0.530139 0.501847 -0.00068853 -0.00410397 0.00493936 
45 9 1 0.535295 0.528791 0.513119 0.00847775 0.00592784 -0.00198956 
47 9 1 0.541996 0.528395 0.500053 0.0144855 0.00738289 -0.00991185 
7 2 1 0.513871 0.499754 0.503671 0.00308367 -0.0114736 0.0051624 
46 9 1 0.529229 0.527989 0.507353 -0.0168151 -0.000382554 0.0121649 
122 9 1 0.584715 0.500471 0.503165 0.00744006 0.014563 -0.0167635 
9 1 1 0.52025 0.501264 0.502942 0.00959452 -0.00116287 0.00299127 
48 9 1 0.537385 0.535883 0.502009 -0.00192593 -0.0199609 0.0272207 
ITEM: TIMESTEP
400
ITEM: NUMBER OF ATOMS
140
ITEM: BOX BOUNDS pp pp pp
-119.812 109.155
-103.702 109.358
-102.142 103.022
ITEM: ATOMS id type mol xs ys zs vx vy vz 
96 7 1 0.453032 0.489282 0.497536 0.00428454 0.00348411 0.00348396 
97 7 1 0.450134 0.482646 0.495228 -0.0010182 0.00114832 -0.00158927 
98 9 1 0.453679 0.49231 0.492822 -0.00973792 -0.00703954 0.0164814 
100 7 1 0.444917 0.483799 0.49044 -0.0038423 0.00725736 0.00045041 
101 9 1 0.448996 0.479584 0.499876 -0.00330783 0.00461098 -0.00510491 
102 9 1 0.453824 0.479682 0.491994 0.000565534 0.0106649 0.000661903 
103 7 1 0.441558 0.477353 0.490045 -0.00209232 -0.00460093 0.00104926 
104 9 1 0.446617 0.48491 0.484956 0.00553572 -0.0115539 0.0176079 
105 9 1 0.441167 0.487875 0.491981 0.014531 -0.0253172 -0.00915662 
106 7 1 0.435563 0.478731 0.486082 -0.000447054 -0.00195411 -0.00254489 
107 9 1 0.440428 0.475281 0.495215 -0.00546352 0.016121 -0.00402916 
108 9 1 0.444569 0.473572 0.486876 -0.0119829 0.0327719 -0.0013647 
135 10 1 0.433267 0.472029 0.484076 0.00170833 0.00163782 -0.00122097 
136 9 1 0.43539 0.482728 0.482087 0.00641922 -0.0100382 -0.0230764 
137 9 1 0.431843 0.480998 0.490074 -0.000100346 -0.0038447 0.0025734 
138 9 1 0.436383 0.468129 0.483084 0.00138353 0.0035138 0.0194945 
139 9 1 0.428918 0.47134 0.481217 0.0115088 -0.0129358 0.0206318 
140 9 1 0.431062 0.469631 0.489527 -0.0149559 -0.00583765 0.00347075 
63 7 1 0.49623 0.468066 0.494205 0.00566325 0.00512617 0.0105419 
66 7 1 0.493199 0.462227 0.490396 0.00172599 0.00385007 -0.0007793 
67 9 1 0.49364 0.472687 0.493899 0.00283946 -0.00984621 0.000914839 
69 10 1 0.486747 0.462673 0.493584 0.0006257 -0.00047475 -0.00424937 
70 9 1 0.495424 0.457294 0.491026 0.00189451 0.0206231 0.00794714 
71 9 1 0.492795 0.463223 0.484459 0.00322783 0.00154405 0.0161122 
72 9 1 0.485516 0.464622 0.498474 0.020144 0.00681752 -0.00955072 
73 9 1 0.483293 0.459415 0.491216 0.00149698 0.0198065 -0.00479956 
74 9 1 0.48464 0.467401 0.490158 0.011901 -0.00368988 -0.0192334 
81 5 1 0.497763 0.486238 0.496659 -0.00362059 -2.53886e-05 0.00485162 
82 3 1 0.486741 0.487773 0.499717 -0.00615004 0.000777864 -0.00356086 
95 5 1 0.464567 0.486422 0.495965 0.00075208 -0.00222862 -0.00100832 
85 3 1 0.47731 0.489354 0.492351 0.005712 0.0106096 0.00953885 
86 3 1 0.484313 0.488873 0.491847 -0.00480663 -0.000756028 -0.00142481 
87 6 1 0.477352 0.494702 0.491055 -0.00267582 0.00860704 0.0172228 
88 6 1 0.484625 0.483309 0.490096 0.00522561 -0.0266392 0.0239066 
99 9 1 0.449043 0.492517 0.499979 -0.00662961 -0.00466894 -0.00188292 
84 3 1 0.475325 0.489009 0.499708 0.00514042 -0.0106412 0.00991562 
94 6 1 0.45831 0.492243 0.511549 0.00151955 0.00169375 0.0312552 
68 9 1 0.495954 0.46664 0.500039 -0.00877481 0.0196976 0.00467982 
77 3 1 0.494216 0.493165 0.506846 -0.00458645 0.00284199 -0.00243685 
93 3 1 0.458653 0.48669 0.502907 -0.00758706 0.00273048 0.00173003 
80 6 1 0.493486 0.488334 0.509605 -0.00836723 -0.0146095 0.00404809 
83 5 1 0.481413 0.494726 0.502965 -0.000724909 -0.00110572 -0.00505023 
91 3 1 0.460278 0.493103 0.505649 0.00108672 -0.0139843 -3.79359e-05 
90 3 1 0.46723 0.492861 0.506786 0.000165484 0.00841557 0.000208516 
92 6 1 0.467748 0.498687 0.509013 0.0131449 0.0511127 -0.00484053 
79 3 1 0.491877 0.493034 0.49976 0.00414928 0.000527254 0.00122604 
89 3 1 0.470164 0.494432 0.500067 0.0035837 -0.00450152 -0.00954193 
1 1 1 0.512055 0.481445 0.501392 0.00244825 -0.00197763 0.00238188 
2 2 1 0.518415 0.48242 0.503227 -0.00157712 -0.00460909 0.00122199 
5 3 1 0.50883 0.487964 0.499879 0.0108164 0.00697232 -0.00406755 
6 4 1 0.521968 0.478428 0.499114 -0.00806368 0.00450262 0.00201685 
11 3 1 0.532661 0.487589 0.49876 -0.00319309 -0.00511652 -0.00167142 
13 3 1 0.539234 0.488614 0.497834 0.00565982 -0.000104569 0.00305009 
128 9 1 0.593038 0.49929 0.495052 0.00371968 -0.0223576 -0.0114764 
16 6 1 0.540977 0.483299 0.499423 -0.00623089 -0.00241515 0.0323276 
50 7 1 0.511049 0.476685 0.495085 -0.000972276 0.00948582 0.00355054 
51 8 1 0.506793 0.471202 0.497833 -0.002228 -0.00401668 -0.00276561 
52 9 1 0.514429 0.47458 0.491628 -0.0186627 0.00708598 -0.0190269 
53 9 1 0.507837 0.479464 0.490675 -0.00362431 -0.00245213 -0.0305297 
54 7 1 0.503076 0.468192 0.492284 0.0008297 0.00207502 -0.006824 
59 9 1 0.514094 0.464022 0.494937 -0.00889599 -0.0128419 0.0053068 
64 9 1 0.50495 0.463704 0.489839 -0.011411 0.00459047 -0.00705178 
65 9 1 0.503203 0.472094 0.487585 0.00935572 -0.0337557 0.00623383 
10 3 1 0.529508 0.494236 0.498864 -0.00102754 0.0037921 -0.00648866 
23 6 1 0.57374 0.488098 0.493536 -0.00865225 -0.000323372 0.00238856 
120 7 1 0.587914 0.490466 0.497812 0.00458171 0.00257032 -0.00641142 
124 9 1 0.584071 0.489191 0.494192 0.0107325 -0.0137083 -0.0196818 
125 9 1 0.589218 0.48543 0.500858 0.0042946 -0.00956987 -0.0102635 
130 9 1 0.59118 0.493906 0.484526 0.00200082 0.00337994 -0.0090574 
123 7 1 0.59385 0.493592 0.495358 0.00372233 0.00457762 -0.00128304 
126 7 1 0.594605 0.491036 0.487719 -0.00361797 -0.00140164 0.00160819 
127 9 1 0.598018 0.492847 0.498402 -0.0198119 -0.00299649 -0.00862983 
129 10 1 0.601095 0.492704 0.485968 -0.000582261 -0.00194586 0.000923274 
131 9 1 0.594003 0.485185 0.487615 0.0109441 0.0037151 0.0117423 
132 9 1 0.602793 0.497281 0.487482 -0.00320078 -0.00326503 -0.0158583 
133 9 1 0.601592 0.491493 0.480435 0.0218608 0.0052746 -0.00417109 
134 9 1 0.604365 0.488602 0.488535 0.0183326 -0.00136512 0.00087942 
3 3 1 0.519225 0.489443 0.499773 -0.00297342 -0.00782632 0.00190095 
20 3 1 0.565843 0.487023 0.49881 -0.00118681 -0.00655041 -0.00908736 
22 6 1 0.564868 0.481463 0.49754 0.0063062 -0.0241801 0.0244654 
14 6 1 0.531719 0.48529 0.504093 -0.0168141 0.0555227 0.0192971 
117 7 1 0.585563 0.494929 0.503403 0.00904271 -0.00485191 -0.00166359 
4 3 1 0.513404 0.49257 0.503824 0.00746147 0.000776057 -0.0109299 
116 7 1 0.580121 0.491669 0.507018 0.00236085 -0.00125574 0.0112917 
8 3 1 0.52387 0.493846 0.504033 -0.0012831 -0.00418555 0.00774243 
115 5 1 0.551779 0.487094 0.502774 0.00145366 0.00152563 0.00397112 
119 9 1 0.579625 0.494339 0.512313 -0.000711066 -0.00305195 0.0201217 
12 5 1 0.535483 0.497183 0.50642 -0.00275672 0.00115785 -0.00320133 
15 3 1 0.541002 0.491 0.505503 0.0040524 -0.00419381 0.00838815 
55 7 1 0.51187 0.465581 0.500439 -0.00478999 0.000764345 0.00111593 
56 9 1 0.503673 0.472812 0.502647 0.00507578 -0.014428 -0.00371257 
57 10 1 0.508367 0.460143 0.503483 0.00193141 -0.00370631 0.0022086 
58 9 1 0.515472 0.468173 0.503365 -0.0307672 -0.00210302 -0.00818786 
60 9 1 0.510395 0.455274 0.503718 0.0121997 0.000760337 0.00438776 
61 9 1 0.503117 0.459972 0.503189 0.00483122 0.0108869 0.00218517 
62 9 1 0.508743 0.461553 0.509713 0.0157403 -0.010372 -0.0081508 
75 3 1 0.503578 0.487288 0.505174 0.00388085 0.00619449 -0.0003287 
76 3 1 0.501078 0.494068 0.506539 0.00335027 -0.00991203 -0.00524353 
78 6 1 0.502021 0.496125 0.500958 0.0132366 0.0205422 -0.0235671 
17 5 1 0.569028 0.494737 0.508245 -0.00565784 0.00222079 -0.00419031 
18 3 1 0.563122 0.487745 0.50545 0.00240501 0.000223229 0.00486719 
19 3 1 0.57407 0.494115 0.501527 0.000760573 0.00458354 0.00657008 
118 9 1 0.580393 0.486475 0.508472 0.0158118 -0.00774826 -0.00540691 
114 6 1 0.557993 0.50056 0.511196 -0.00842608 0.000788288 0.0110528 
109 3 1 0.546468 0.495767 0.503732 0.00501918 0.000449638 -0.00205021 
110 3 1 0.549425 0.496402 0.510588 -0.00166914 -0.0134764 0.000131394 
111 3 1 0.556137 0.495024 0.510474 -0.0035889 0.0106288 -0.011371 
112 6 1 0.547753 0.49289 0.514817 -0.0134895 0.0280539 0.0170499 
113 3 1 0.557852 0.494221 0.503219 0.00617176 -0.000470336 0.00684882 
121 9 1 0.588899 0.496904 0.507083 -0.0148211 0.00689441 0.0284799 
21 3 1 0.572343 0.486828 0.499318 -0.00599893 -0.0027342 -0.00685031 
33 9 1 0.520884 0.512575 0.495279 -0.00502715 0.0145944 -0.0113573 
34 9 1 0.52649 0.51914 0.497337 0.021134 0.00768016 -0.0056213 
49 9 1 0.536978 0.530256 0.499971 0.0159342 -0.00145052 -0.000236331 
24 4 1 0.511138 0.503475 0.505078 -0.00672347 -0.00147395 -0.0011001 
25 7 1 0.522266 0.505103 0.50748 0.00533441 -0.00420043 -0.00174273 
26 8 1 0.526682 0.510472 0.503876 -0.00411433 -0.00473171 -0.00192012 
27 9 1 0.525684 0.50322 0.511267 -0.0257129 0.0404876 0.0298763 
28 9 1 0.51938 0.508138 0.511486 0.0211169 0.0151791 0.0040019 
29 7 1 0.522871 0.51516 0.500032 0.0022441 0.00103851 0.00582 
30 7 1 0.52912 0.514854 0.510564 -0.00153371 -0.00835383 0.000657215 
31 9 1 0.530456 0.507713 0.501004 0.0102098 0.0134939 0.00389382 
32 10 1 0.51784 0.518863 0.503561 -0.00181264 0.000337664 -0.00084129 
35 9 1 0.519127 0.52273 0.506959 0.00205117 -0.012767 -0.00216523 
36 9 1 0.514088 0.515424 0.505222 0.017837 -0.00100307 -0.0056767 
37 9 1 0.514969 0.521701 0.498944 -0.0084008 -0.00444507 0.00351165 
38 7 1 0.534282 0.518875 0.507445 -0.00308308 0.00141834 -0.0019609 
39 9 1 0.531518 0.511106 0.514113 0.0104488 0.0071705 -0.0042659 
40 9 1 0.524937 0.517077 0.5138 -0.0013779 -0.0214933 0.00523751 
41 7 1 0.533619 0.526005 0.509706 -0.00416102 0.00307067 0.00163955 
42 9 1 0.536474 0.51746 0.50247 -0.00740672 -0.0236488 -0.0136383 
43 9 1 0.538667 0.51689 0.511019 0.016358 0.000433486 0.00377685 
44 10 1 0.538594 0.529838 0.50601 0.00199487 0.00375577 0.00576787 
45 9 1 0.533442 0.526717 0.515311 0.00867586 0.00756095 0.0106768 
47 9 1 0.54296 0.527585 0.505708 0.00984273 -0.00538504 0.0179703 
7 2 1 0.514114 0.499995 0.499804 -0.00169557 -0.00381082 0.00473678 
46 9 1 0.529113 0.528205 0.507534 -0.0120573 -0.00611374 -0.00721844 
122 9 1 0.583643 0.499603 0.500355 0.0210798 0.016787 -0.00932165 
9 1 1 0.520743 0.500801 0.501344 -0.000376285 0.00863783 -0.00695693 
48 9 1 0.538716 0.535151 0.507159 0.025325 -0.00195737 -0.0153159 
ITEM: TIMESTEP
600
ITEM: NUMBER OF ATOMS
140
ITEM: BOX BOUNDS pp pp pp
-119.152 108.495
-103.088 108.744
-101.551 102.431
ITEM: ATOMS id type mol xs ys zs vx vy vz 
96 7 1 0.45324 0.488816 0.497091 0.00124634 0.000696909 -0.00026457 
97 7 1 0.449752 0.482387 0.497004 -0.00156915 0.00250971 0.00654277 
98 9 1 0.454482 0.489947 0.491711 -0.00785089 0.0154637 0.00491143 
100 7 1 0.443985 0.483493 0.492584 -0.000236649 -0.000925915 -0.000678834 
101 9 1 0.44864 0.480205 0.502186 0.00747111 0.00109833 0.0121141 
102 9 1 0.452723 0.478032 0.494193 0.00821164 0.00439446 0.0064828 
103 7 1 0.441352 0.476775 0.490286 -0.00214434 0.00138533 -0.0042063 
104 9 1 0.444806 0.486763 0.487809 -0.0100599 0.00106309 0.0158049 